
Linearized model: Predictions were generated on 31-Jan-2024 at 12:35:17 using OpenFAST, compiled as a 64-bit application using single precision at commit v3.5.1
 linked with  NWTC Subroutine Library; ElastoDyn; InflowWind; AeroDyn; ServoDyn; HydroDyn; MAP++ (<1.20.10>, <Oct-20-2023>)

Description from the FAST input file: CCT-9 Campign 4 model. Input files to be run with OpenFAST 3.5.0. GitHub branch from Lu Wang (https://github.com/luwang00/openfast/tree/dev) compiled on March 7, 2023.

Simulation information:
   Simulation time:                   500.5000 s
   Rotor Speed:                         0.8935 rad/s
   Azimuth:                             1.1931 rad
   Wind Speed:                         10.0000 m/s
   Number of continuous states:         0
   Number of discrete states:           0
   Number of constraint states:         0
   Number of inputs:                 1746
   Number of outputs:                   4
   Jacobians included in this file?    No

Order of inputs:
     Column   Operating Point                     Rotating Frame? Derivative Order Description
   ---------- ---------------                     --------------- ---------------- -----------
          1    8.516E+00                                 F               0         Tower X translation displacement, node 1, m
          2   -1.355E+00                                 F               0         Tower Y translation displacement, node 1, m
          3   -7.056E-02                                 F               0         Tower Z translation displacement, node 1, m
          4    8.752E+00                                 F               0         Tower X translation displacement, node 2, m
          5   -1.887E+00                                 F               0         Tower Y translation displacement, node 2, m
          6   -8.432E-02                                 F               0         Tower Z translation displacement, node 2, m
          7    9.002E+00                                 F               0         Tower X translation displacement, node 3, m
          8   -2.420E+00                                 F               0         Tower Y translation displacement, node 3, m
          9   -9.833E-02                                 F               0         Tower Z translation displacement, node 3, m
         10    9.262E+00                                 F               0         Tower X translation displacement, node 4, m
         11   -2.952E+00                                 F               0         Tower Y translation displacement, node 4, m
         12   -1.125E-01                                 F               0         Tower Z translation displacement, node 4, m
         13    9.530E+00                                 F               0         Tower X translation displacement, node 5, m
         14   -3.485E+00                                 F               0         Tower Y translation displacement, node 5, m
         15   -1.269E-01                                 F               0         Tower Z translation displacement, node 5, m
         16    9.804E+00                                 F               0         Tower X translation displacement, node 6, m
         17   -4.017E+00                                 F               0         Tower Y translation displacement, node 6, m
         18   -1.414E-01                                 F               0         Tower Z translation displacement, node 6, m
         19    1.008E+01                                 F               0         Tower X translation displacement, node 7, m
         20   -4.549E+00                                 F               0         Tower Y translation displacement, node 7, m
         21   -1.560E-01                                 F               0         Tower Z translation displacement, node 7, m
         22    1.036E+01                                 F               0         Tower X translation displacement, node 8, m
         23   -5.082E+00                                 F               0         Tower Y translation displacement, node 8, m
         24   -1.707E-01                                 F               0         Tower Z translation displacement, node 8, m
         25    1.065E+01                                 F               0         Tower X translation displacement, node 9, m
         26   -5.614E+00                                 F               0         Tower Y translation displacement, node 9, m
         27   -1.854E-01                                 F               0         Tower Z translation displacement, node 9, m
         28    1.093E+01                                 F               0         Tower X translation displacement, node 10, m
         29   -6.146E+00                                 F               0         Tower Y translation displacement, node 10, m
         30   -2.002E-01                                 F               0         Tower Z translation displacement, node 10, m
         31    1.122E+01                                 F               0         Tower X translation displacement, node 11, m
         32   -6.679E+00                                 F               0         Tower Y translation displacement, node 11, m
         33   -2.149E-01                                 F               0         Tower Z translation displacement, node 11, m
         34    9.998E-01,  7.485E-03, -1.841E-02         F               0         Tower X orientation angle, node 1, rad
         35   -6.683E-03,  9.990E-01,  4.325E-02         F               0         Tower Y orientation angle, node 1, rad
         36    1.872E-02, -4.312E-02,  9.989E-01         F               0         Tower Z orientation angle, node 1, rad
         37    9.998E-01,  7.529E-03, -1.943E-02         F               0         Tower X orientation angle, node 2, rad
         38   -6.683E-03,  9.990E-01,  4.325E-02         F               0         Tower Y orientation angle, node 2, rad
         39    1.974E-02, -4.311E-02,  9.989E-01         F               0         Tower Z orientation angle, node 2, rad
         40    9.998E-01,  7.567E-03, -2.031E-02         F               0         Tower X orientation angle, node 3, rad
         41   -6.683E-03,  9.990E-01,  4.325E-02         F               0         Tower Y orientation angle, node 3, rad
         42    2.061E-02, -4.310E-02,  9.989E-01         F               0         Tower Z orientation angle, node 3, rad
         43    9.998E-01,  7.598E-03, -2.103E-02         F               0         Tower X orientation angle, node 4, rad
         44   -6.683E-03,  9.990E-01,  4.325E-02         F               0         Tower Y orientation angle, node 4, rad
         45    2.133E-02, -4.310E-02,  9.988E-01         F               0         Tower Z orientation angle, node 4, rad
         46    9.997E-01,  7.623E-03, -2.160E-02         F               0         Tower X orientation angle, node 5, rad
         47   -6.683E-03,  9.990E-01,  4.325E-02         F               0         Tower Y orientation angle, node 5, rad
         48    2.190E-02, -4.309E-02,  9.988E-01         F               0         Tower Z orientation angle, node 5, rad
         49    9.997E-01,  7.641E-03, -2.203E-02         F               0         Tower X orientation angle, node 6, rad
         50   -6.683E-03,  9.990E-01,  4.325E-02         F               0         Tower Y orientation angle, node 6, rad
         51    2.234E-02, -4.309E-02,  9.988E-01         F               0         Tower Z orientation angle, node 6, rad
         52    9.997E-01,  7.654E-03, -2.233E-02         F               0         Tower X orientation angle, node 7, rad
         53   -6.683E-03,  9.990E-01,  4.325E-02         F               0         Tower Y orientation angle, node 7, rad
         54    2.264E-02, -4.309E-02,  9.988E-01         F               0         Tower Z orientation angle, node 7, rad
         55    9.997E-01,  7.663E-03, -2.254E-02         F               0         Tower X orientation angle, node 8, rad
         56   -6.683E-03,  9.990E-01,  4.325E-02         F               0         Tower Y orientation angle, node 8, rad
         57    2.285E-02, -4.308E-02,  9.988E-01         F               0         Tower Z orientation angle, node 8, rad
         58    9.997E-01,  7.669E-03, -2.267E-02         F               0         Tower X orientation angle, node 9, rad
         59   -6.683E-03,  9.990E-01,  4.325E-02         F               0         Tower Y orientation angle, node 9, rad
         60    2.298E-02, -4.308E-02,  9.988E-01         F               0         Tower Z orientation angle, node 9, rad
         61    9.997E-01,  7.672E-03, -2.274E-02         F               0         Tower X orientation angle, node 10, rad
         62   -6.683E-03,  9.990E-01,  4.325E-02         F               0         Tower Y orientation angle, node 10, rad
         63    2.305E-02, -4.308E-02,  9.988E-01         F               0         Tower Z orientation angle, node 10, rad
         64    9.997E-01,  7.673E-03, -2.277E-02         F               0         Tower X orientation angle, node 11, rad
         65   -6.683E-03,  9.990E-01,  4.325E-02         F               0         Tower Y orientation angle, node 11, rad
         66    2.308E-02, -4.308E-02,  9.988E-01         F               0         Tower Z orientation angle, node 11, rad
         67    7.898E-06                                 F               0         Tower X translation velocity, node 1, m/s
         68   -6.712E-07                                 F               0         Tower Y translation velocity, node 1, m/s
         69   -1.136E-04                                 F               0         Tower Z translation velocity, node 1, m/s
         70    5.360E-06                                 F               0         Tower X translation velocity, node 2, m/s
         71   -1.145E-06                                 F               0         Tower Y translation velocity, node 2, m/s
         72   -1.136E-04                                 F               0         Tower Z translation velocity, node 2, m/s
         73   -4.249E-07                                 F               0         Tower X translation velocity, node 3, m/s
         74   -1.669E-06                                 F               0         Tower Y translation velocity, node 3, m/s
         75   -1.135E-04                                 F               0         Tower Z translation velocity, node 3, m/s
         76   -7.884E-06                                 F               0         Tower X translation velocity, node 4, m/s
         77   -2.226E-06                                 F               0         Tower Y translation velocity, node 4, m/s
         78   -1.134E-04                                 F               0         Tower Z translation velocity, node 4, m/s
         79   -1.594E-05                                 F               0         Tower X translation velocity, node 5, m/s
         80   -2.803E-06                                 F               0         Tower Y translation velocity, node 5, m/s
         81   -1.132E-04                                 F               0         Tower Z translation velocity, node 5, m/s
         82   -2.368E-05                                 F               0         Tower X translation velocity, node 6, m/s
         83   -3.389E-06                                 F               0         Tower Y translation velocity, node 6, m/s
         84   -1.131E-04                                 F               0         Tower Z translation velocity, node 6, m/s
         85   -3.055E-05                                 F               0         Tower X translation velocity, node 7, m/s
         86   -3.977E-06                                 F               0         Tower Y translation velocity, node 7, m/s
         87   -1.130E-04                                 F               0         Tower Z translation velocity, node 7, m/s
         88   -3.605E-05                                 F               0         Tower X translation velocity, node 8, m/s
         89   -4.561E-06                                 F               0         Tower Y translation velocity, node 8, m/s
         90   -1.129E-04                                 F               0         Tower Z translation velocity, node 8, m/s
         91   -4.003E-05                                 F               0         Tower X translation velocity, node 9, m/s
         92   -5.137E-06                                 F               0         Tower Y translation velocity, node 9, m/s
         93   -1.128E-04                                 F               0         Tower Z translation velocity, node 9, m/s
         94   -4.260E-05                                 F               0         Tower X translation velocity, node 10, m/s
         95   -5.705E-06                                 F               0         Tower Y translation velocity, node 10, m/s
         96   -1.128E-04                                 F               0         Tower Z translation velocity, node 10, m/s
         97   -4.408E-05                                 F               0         Tower X translation velocity, node 11, m/s
         98   -6.265E-06                                 F               0         Tower Y translation velocity, node 11, m/s
         99   -1.127E-04                                 F               0         Tower Z translation velocity, node 11, m/s
        100    1.140E+01                                 F               0         Hub X translation displacement, node 1, m
        101   -7.100E+00                                 F               0         Hub Y translation displacement, node 1, m
        102    2.161E-02                                 F               0         Hub Z translation displacement, node 1, m
        103    9.918E-01,  1.213E-02, -1.270E-01         F               0         Hub X orientation angle, node 1, rad
        104    1.160E-01,  3.294E-01,  9.370E-01         F               0         Hub Y orientation angle, node 1, rad
        105    5.322E-02, -9.441E-01,  3.253E-01         F               0         Hub Z orientation angle, node 1, rad
        106    8.862E-01                                 F               0         Hub X rotation velocity, node 1, rad/s
        107    1.084E-02                                 F               0         Hub Y rotation velocity, node 1, rad/s
        108   -1.135E-01                                 F               0         Hub Z rotation velocity, node 1, rad/s
        109    9.879E-01,  2.358E-03, -1.548E-01         F               0         Blade root 1 X orientation angle, node 1, rad
        110    1.454E-01,  3.296E-01,  9.329E-01         F               0         Blade root 1 Y orientation angle, node 1, rad
        111    5.322E-02, -9.441E-01,  3.253E-01         F               0         Blade root 1 Z orientation angle, node 1, rad
        112    9.917E-01,  4.127E-02, -1.215E-01         F               0         Blade root 2 X orientation angle, node 1, rad
        113    1.751E-02, -9.815E-01, -1.905E-01         F               0         Blade root 2 Y orientation angle, node 1, rad
        114   -1.271E-01,  1.868E-01, -9.741E-01         F               0         Blade root 2 Z orientation angle, node 1, rad
        115    9.945E-01, -7.241E-03, -1.047E-01         F               0         Blade root 3 X orientation angle, node 1, rad
        116   -7.462E-02,  6.530E-01, -7.537E-01         F               0         Blade root 3 Y orientation angle, node 1, rad
        117    7.385E-02,  7.573E-01,  6.489E-01         F               0         Blade root 3 Z orientation angle, node 1, rad
        118    1.112E+01                                 F               0         Blade 1 X translation displacement, node 1, m
        119   -1.233E+01                                 F               0         Blade 1 Y translation displacement, node 1, m
        120   -3.686E+00                                 F               0         Blade 1 Z translation displacement, node 1, m
        121    1.105E+01                                 F               0         Blade 1 X translation displacement, node 2, m
        122   -1.359E+01                                 F               0         Blade 1 Y translation displacement, node 2, m
        123   -4.579E+00                                 F               0         Blade 1 Z translation displacement, node 2, m
        124    1.012E+01                                 F               0         Blade 1 X translation displacement, node 3, m
        125   -3.073E+01                                 F               0         Blade 1 Y translation displacement, node 3, m
        126   -1.673E+01                                 F               0         Blade 1 Z translation displacement, node 3, m
        127    9.917E+00                                 F               0         Blade 1 X translation displacement, node 4, m
        128   -3.438E+01                                 F               0         Blade 1 Y translation displacement, node 4, m
        129   -1.932E+01                                 F               0         Blade 1 Z translation displacement, node 4, m
        130    9.719E+00                                 F               0         Blade 1 X translation displacement, node 5, m
        131   -3.803E+01                                 F               0         Blade 1 Y translation displacement, node 5, m
        132   -2.191E+01                                 F               0         Blade 1 Z translation displacement, node 5, m
        133    9.520E+00                                 F               0         Blade 1 X translation displacement, node 6, m
        134   -4.168E+01                                 F               0         Blade 1 Y translation displacement, node 6, m
        135   -2.449E+01                                 F               0         Blade 1 Z translation displacement, node 6, m
        136    9.322E+00                                 F               0         Blade 1 X translation displacement, node 7, m
        137   -4.533E+01                                 F               0         Blade 1 Y translation displacement, node 7, m
        138   -2.708E+01                                 F               0         Blade 1 Z translation displacement, node 7, m
        139    9.123E+00                                 F               0         Blade 1 X translation displacement, node 8, m
        140   -4.899E+01                                 F               0         Blade 1 Y translation displacement, node 8, m
        141   -2.967E+01                                 F               0         Blade 1 Z translation displacement, node 8, m
        142    8.925E+00                                 F               0         Blade 1 X translation displacement, node 9, m
        143   -5.264E+01                                 F               0         Blade 1 Y translation displacement, node 9, m
        144   -3.226E+01                                 F               0         Blade 1 Z translation displacement, node 9, m
        145    8.726E+00                                 F               0         Blade 1 X translation displacement, node 10, m
        146   -5.629E+01                                 F               0         Blade 1 Y translation displacement, node 10, m
        147   -3.485E+01                                 F               0         Blade 1 Z translation displacement, node 10, m
        148    8.528E+00                                 F               0         Blade 1 X translation displacement, node 11, m
        149   -5.994E+01                                 F               0         Blade 1 Y translation displacement, node 11, m
        150   -3.744E+01                                 F               0         Blade 1 Z translation displacement, node 11, m
        151    8.329E+00                                 F               0         Blade 1 X translation displacement, node 12, m
        152   -6.359E+01                                 F               0         Blade 1 Y translation displacement, node 12, m
        153   -4.002E+01                                 F               0         Blade 1 Z translation displacement, node 12, m
        154    8.131E+00                                 F               0         Blade 1 X translation displacement, node 13, m
        155   -6.724E+01                                 F               0         Blade 1 Y translation displacement, node 13, m
        156   -4.261E+01                                 F               0         Blade 1 Z translation displacement, node 13, m
        157    7.933E+00                                 F               0         Blade 1 X translation displacement, node 14, m
        158   -7.090E+01                                 F               0         Blade 1 Y translation displacement, node 14, m
        159   -4.520E+01                                 F               0         Blade 1 Z translation displacement, node 14, m
        160    7.734E+00                                 F               0         Blade 1 X translation displacement, node 15, m
        161   -7.455E+01                                 F               0         Blade 1 Y translation displacement, node 15, m
        162   -4.779E+01                                 F               0         Blade 1 Z translation displacement, node 15, m
        163    7.536E+00                                 F               0         Blade 1 X translation displacement, node 16, m
        164   -7.820E+01                                 F               0         Blade 1 Y translation displacement, node 16, m
        165   -5.038E+01                                 F               0         Blade 1 Z translation displacement, node 16, m
        166    7.337E+00                                 F               0         Blade 1 X translation displacement, node 17, m
        167   -8.185E+01                                 F               0         Blade 1 Y translation displacement, node 17, m
        168   -5.297E+01                                 F               0         Blade 1 Z translation displacement, node 17, m
        169    7.139E+00                                 F               0         Blade 1 X translation displacement, node 18, m
        170   -8.550E+01                                 F               0         Blade 1 Y translation displacement, node 18, m
        171   -5.556E+01                                 F               0         Blade 1 Z translation displacement, node 18, m
        172    6.940E+00                                 F               0         Blade 1 X translation displacement, node 19, m
        173   -8.915E+01                                 F               0         Blade 1 Y translation displacement, node 19, m
        174   -5.814E+01                                 F               0         Blade 1 Z translation displacement, node 19, m
        175    6.742E+00                                 F               0         Blade 1 X translation displacement, node 20, m
        176   -9.281E+01                                 F               0         Blade 1 Y translation displacement, node 20, m
        177   -6.073E+01                                 F               0         Blade 1 Z translation displacement, node 20, m
        178    6.543E+00                                 F               0         Blade 1 X translation displacement, node 21, m
        179   -9.646E+01                                 F               0         Blade 1 Y translation displacement, node 21, m
        180   -6.332E+01                                 F               0         Blade 1 Z translation displacement, node 21, m
        181    6.345E+00                                 F               0         Blade 1 X translation displacement, node 22, m
        182   -1.001E+02                                 F               0         Blade 1 Y translation displacement, node 22, m
        183   -6.591E+01                                 F               0         Blade 1 Z translation displacement, node 22, m
        184    6.146E+00                                 F               0         Blade 1 X translation displacement, node 23, m
        185   -1.038E+02                                 F               0         Blade 1 Y translation displacement, node 23, m
        186   -6.850E+01                                 F               0         Blade 1 Z translation displacement, node 23, m
        187    5.948E+00                                 F               0         Blade 1 X translation displacement, node 24, m
        188   -1.074E+02                                 F               0         Blade 1 Y translation displacement, node 24, m
        189   -7.109E+01                                 F               0         Blade 1 Z translation displacement, node 24, m
        190    5.750E+00                                 F               0         Blade 1 X translation displacement, node 25, m
        191   -1.111E+02                                 F               0         Blade 1 Y translation displacement, node 25, m
        192   -7.367E+01                                 F               0         Blade 1 Z translation displacement, node 25, m
        193    5.551E+00                                 F               0         Blade 1 X translation displacement, node 26, m
        194   -1.147E+02                                 F               0         Blade 1 Y translation displacement, node 26, m
        195   -7.626E+01                                 F               0         Blade 1 Z translation displacement, node 26, m
        196    5.353E+00                                 F               0         Blade 1 X translation displacement, node 27, m
        197   -1.184E+02                                 F               0         Blade 1 Y translation displacement, node 27, m
        198   -7.885E+01                                 F               0         Blade 1 Z translation displacement, node 27, m
        199    5.184E+00                                 F               0         Blade 1 X translation displacement, node 28, m
        200   -1.215E+02                                 F               0         Blade 1 Y translation displacement, node 28, m
        201   -8.105E+01                                 F               0         Blade 1 Z translation displacement, node 28, m
        202    8.130E-01, -1.482E-01, -5.632E-01         F               0         Blade 1 X orientation angle, node 1, rad
        203    5.799E-01,  2.944E-01,  7.596E-01         F               0         Blade 1 Y orientation angle, node 1, rad
        204    5.322E-02, -9.441E-01,  3.253E-01         F               0         Blade 1 Z orientation angle, node 1, rad
        205    8.130E-01, -1.482E-01, -5.632E-01         F               0         Blade 1 X orientation angle, node 2, rad
        206    5.799E-01,  2.944E-01,  7.596E-01         F               0         Blade 1 Y orientation angle, node 2, rad
        207    5.322E-02, -9.441E-01,  3.253E-01         F               0         Blade 1 Z orientation angle, node 2, rad
        208    9.272E-01, -7.420E-02, -3.671E-01         F               0         Blade 1 X orientation angle, node 3, rad
        209    3.707E-01,  3.211E-01,  8.715E-01         F               0         Blade 1 Y orientation angle, node 3, rad
        210    5.322E-02, -9.441E-01,  3.253E-01         F               0         Blade 1 Z orientation angle, node 3, rad
        211    9.421E-01, -6.057E-02, -3.299E-01         F               0         Blade 1 X orientation angle, node 4, rad
        212    3.312E-01,  3.240E-01,  8.862E-01         F               0         Blade 1 Y orientation angle, node 4, rad
        213    5.322E-02, -9.441E-01,  3.253E-01         F               0         Blade 1 Z orientation angle, node 4, rad
        214    9.525E-01, -4.980E-02, -3.004E-01         F               0         Blade 1 X orientation angle, node 5, rad
        215    2.998E-01,  3.258E-01,  8.966E-01         F               0         Blade 1 Y orientation angle, node 5, rad
        216    5.322E-02, -9.441E-01,  3.253E-01         F               0         Blade 1 Z orientation angle, node 5, rad
        217    9.601E-01, -4.114E-02, -2.765E-01         F               0         Blade 1 X orientation angle, node 6, rad
        218    2.744E-01,  3.270E-01,  9.043E-01         F               0         Blade 1 Y orientation angle, node 6, rad
        219    5.322E-02, -9.441E-01,  3.253E-01         F               0         Blade 1 Z orientation angle, node 6, rad
        220    9.659E-01, -3.399E-02, -2.567E-01         F               0         Blade 1 X orientation angle, node 7, rad
        221    2.534E-01,  3.278E-01,  9.101E-01         F               0         Blade 1 Y orientation angle, node 7, rad
        222    5.322E-02, -9.441E-01,  3.253E-01         F               0         Blade 1 Z orientation angle, node 7, rad
        223    9.703E-01, -2.804E-02, -2.401E-01         F               0         Blade 1 X orientation angle, node 8, rad
        224    2.358E-01,  3.284E-01,  9.146E-01         F               0         Blade 1 Y orientation angle, node 8, rad
        225    5.322E-02, -9.441E-01,  3.253E-01         F               0         Blade 1 Z orientation angle, node 8, rad
        226    9.738E-01, -2.299E-02, -2.261E-01         F               0         Blade 1 X orientation angle, node 9, rad
        227    2.209E-01,  3.288E-01,  9.182E-01         F               0         Blade 1 Y orientation angle, node 9, rad