
Linearized model: Predictions were generated on 13-Feb-2024 at 11:29:37 using OpenFAST, compiled as a 64-bit application using single precision at commit v3.5.1
 linked with  NWTC Subroutine Library; ElastoDyn; InflowWind; AeroDyn; ServoDyn; HydroDyn; MAP++ (<1.20.10>, <Oct-20-2023>)

Description from the FAST input file: CCT-9 Campign 4 model. Input files to be run with OpenFAST 3.5.0. GitHub branch from Lu Wang (https://github.com/luwang00/openfast/tree/dev) compiled on March 7, 2023.

Simulation information:
   Simulation time:                  1216.8000 s
   Rotor Speed:                         0.7918 rad/s
   Azimuth:                             4.7303 rad
   Wind Speed:                         16.0000 m/s
   Number of continuous states:         0
   Number of discrete states:           0
   Number of constraint states:         0
   Number of inputs:                   37
   Number of outputs:                   7
   Jacobians included in this file?    No

Order of inputs:
     Column   Operating Point                                                   Rotating Frame? Derivative Order Description
   ---------- ---------------                                                   --------------- ---------------- -----------
          1     8.64542961121E+000                                                     F               0         WAMIT X translation displacement, node 1, m
          2    -6.19141221046E-001                                                     F               0         WAMIT Y translation displacement, node 1, m
          3    -1.47255346179E-001                                                     F               0         WAMIT Z translation displacement, node 1, m
          4     9.93685066700E-001,   3.40374629013E-003,  -1.12153641880E-001         F               0         WAMIT X orientation angle, node 1, rad
          5     2.38049565814E-003,   9.98675286770E-001,   5.14000281692E-002         F               0         WAMIT Y orientation angle, node 1, rad
          6     1.12180024385E-001,  -5.13424202800E-002,   9.92360591888E-001         F               0         WAMIT Z orientation angle, node 1, rad
          7    -9.70060791587E-005                                                     F               0         WAMIT X translation velocity, node 1, m/s
          8    -5.96452329773E-004                                                     F               0         WAMIT Y translation velocity, node 1, m/s
          9    -7.30784703046E-003                                                     F               0         WAMIT Z translation velocity, node 1, m/s
         10     6.93307156325E-005                                                     F               0         WAMIT X rotation velocity, node 1, rad/s
         11    -5.51562834517E-006                                                     F               0         WAMIT Y rotation velocity, node 1, rad/s
         12    -3.56884879693E-006                                                     F               0         WAMIT Z rotation velocity, node 1, rad/s
         13    -1.94647494936E-004                                                     F               0         WAMIT X translation acceleration, node 1, m/s^2
         14     2.56352825090E-004                                                     F               0         WAMIT Y translation acceleration, node 1, m/s^2
         15    -8.42073641252E-004                                                     F               0         WAMIT Z translation acceleration, node 1, m/s^2
         16    -7.97509073891E-006                                                     F               0         WAMIT X rotation acceleration, node 1, rad/s^2
         17    -1.52190486915E-005                                                     F               0         WAMIT Y rotation acceleration, node 1, rad/s^2
         18     1.46507936734E-005                                                     F               0         WAMIT Z rotation acceleration, node 1, rad/s^2
         19     8.64542961121E+000                                                     F               0         Platform-RefPt X translation displacement, node 1, m
         20    -6.19141221046E-001                                                     F               0         Platform-RefPt Y translation displacement, node 1, m
         21    -1.47255346179E-001                                                     F               0         Platform-RefPt Z translation displacement, node 1, m
         22     9.93685066700E-001,   3.40374629013E-003,  -1.12153641880E-001         F               0         Platform-RefPt X orientation angle, node 1, rad
         23     2.38049565814E-003,   9.98675286770E-001,   5.14000281692E-002         F               0         Platform-RefPt Y orientation angle, node 1, rad
         24     1.12180024385E-001,  -5.13424202800E-002,   9.92360591888E-001         F               0         Platform-RefPt Z orientation angle, node 1, rad
         25    -9.70060791587E-005                                                     F               0         Platform-RefPt X translation velocity, node 1, m/s
         26    -5.96452329773E-004                                                     F               0         Platform-RefPt Y translation velocity, node 1, m/s
         27    -7.30784703046E-003                                                     F               0         Platform-RefPt Z translation velocity, node 1, m/s
         28     6.93307156325E-005                                                     F               0         Platform-RefPt X rotation velocity, node 1, rad/s
         29    -5.51562834517E-006                                                     F               0         Platform-RefPt Y rotation velocity, node 1, rad/s
         30    -3.56884879693E-006                                                     F               0         Platform-RefPt Z rotation velocity, node 1, rad/s
         31    -1.94647494936E-004                                                     F               0         Platform-RefPt X translation acceleration, node 1, m/s^2
         32     2.56352825090E-004                                                     F               0         Platform-RefPt Y translation acceleration, node 1, m/s^2
         33    -8.42073641252E-004                                                     F               0         Platform-RefPt Z translation acceleration, node 1, m/s^2
         34    -7.97509073891E-006                                                     F               0         Platform-RefPt X rotation acceleration, node 1, rad/s^2
         35    -1.52190486915E-005                                                     F               0         Platform-RefPt Y rotation acceleration, node 1, rad/s^2
         36     1.46507936734E-005                                                     F               0         Platform-RefPt Z rotation acceleration, node 1, rad/s^2
         37     0.00000000000E+000                                                     F               0         Extended input: wave elevation at platform ref point, m

Order of outputs:
        Row   Operating Point                                                   Rotating Frame? Derivative Order Description
   ---------- ---------------                                                   --------------- ---------------- -----------
          1     0.00000000000E+000                                                     F               0         Wave1Elev, (m)
          2    -5.89617226562E+004                                                     F               0         HydroFxi, (N)
          3    -1.52532080078E+003                                                     F               0         HydroFyi, (N)
          4     2.04003088000E+008                                                     F               0         HydroFzi, (N)
          5    -1.10435120000E+008                                                     F               0         HydroMxi, (N-m)
          6    -2.41050432000E+008                                                     F               0         HydroMyi, (N-m)
          7    -2.87027875000E+005                                                     F               0         HydroMzi, (N-m)


Linearized state matrices:

D: 7 x 37
     0.00000000000E+000   0.00000000000E+000   0.00000000000E+000   0.00000000000E+000   0.00000000000E+000   0.00000000000E+000   0.00000000000E+000   0.00000000000E+000   0.00000000000E+000   0.00000000000E+000   0.00000000000E+000   0.00000000000E+000   0.00000000000E+000   0.00000000000E+000   0.00000000000E+000   0.00000000000E+000   0.00000000000E+000   0.00000000000E+000   0.00000000000E+000   0.00000000000E+000   0.00000000000E+000   0.00000000000E+000   0.00000000000E+000   0.00000000000E+000   0.00000000000E+000   0.00000000000E+000   0.00000000000E+000   0.00000000000E+000   0.00000000000E+000   0.00000000000E+000   0.00000000000E+000   0.00000000000E+000   0.00000000000E+000   0.00000000000E+000   0.00000000000E+000   0.00000000000E+000   0.00000000000E+000
    -6.86001893231E+003   0.00000000000E+000   0.00000000000E+000   0.00000000000E+000   0.00000000000E+000   0.00000000000E+000  -2.82173128432E+005   0.00000000000E+000   0.00000000000E+000   0.00000000000E+000  -5.59529101142E-002   0.00000000000E+000  -9.38083896931E+006   0.00000000000E+000   1.99671965511E+001  -5.59529101142E-002   9.82680351759E+007   0.00000000000E+000   0.00000000000E+000   0.00000000000E+000   0.00000000000E+000   0.00000000000E+000   0.00000000000E+000   0.00000000000E+000   0.00000000000E+000   0.00000000000E+000   0.00000000000E+000   0.00000000000E+000   0.00000000000E+000   0.00000000000E+000   0.00000000000E+000   0.00000000000E+000   0.00000000000E+000   0.00000000000E+000   0.00000000000E+000   0.00000000000E+000   0.00000000000E+000
     0.00000000000E+000   0.00000000000E+000   0.00000000000E+000   0.00000000000E+000   0.00000000000E+000   0.00000000000E+000   0.00000000000E+000  -2.82175974037E+005   0.00000000000E+000   0.00000000000E+000   0.00000000000E+000   0.00000000000E+000   0.00000000000E+000  -9.38088705685E+006   0.00000000000E+000  -9.82662375208E+007   0.00000000000E+000   1.78567942486E+003   0.00000000000E+000   0.00000000000E+000   0.00000000000E+000   0.00000000000E+000   0.00000000000E+000   0.00000000000E+000   0.00000000000E+000   0.00000000000E+000   0.00000000000E+000   0.00000000000E+000   0.00000000000E+000   0.00000000000E+000   0.00000000000E+000   0.00000000000E+000   0.00000000000E+000   0.00000000000E+000   0.00000000000E+000   0.00000000000E+000   0.00000000000E+000
     0.00000000000E+000   0.00000000000E+000  -4.39475022593E+006   0.00000000000E+000   3.89611303707E+003   0.00000000000E+000   0.00000000000E+000   0.00000000000E+000  -8.09212892677E+005   0.00000000000E+000   0.00000000000E+000   0.00000000000E+000   0.00000000000E+000   0.00000000000E+000  -2.41346206440E+007   0.00000000000E+000   1.76471002267E+004   0.00000000000E+000   0.00000000000E+000   0.00000000000E+000   0.00000000000E+000   0.00000000000E+000   0.00000000000E+000   0.00000000000E+000   0.00000000000E+000   0.00000000000E+000   0.00000000000E+000   0.00000000000E+000   0.00000000000E+000   0.00000000000E+000   0.00000000000E+000   0.00000000000E+000   0.00000000000E+000   0.00000000000E+000   0.00000000000E+000   0.00000000000E+000   0.00000000000E+000
     0.00000000000E+000   2.04003139928E+008   1.53880101780E+003  -2.13421486209E+009   0.00000000000E+000   8.86938673733E+004   0.00000000000E+000   0.00000000000E+000   0.00000000000E+000  -2.78328414658E+009   0.00000000000E+000   0.00000000000E+000   0.00000000000E+000  -9.82010097437E+007   0.00000000000E+000  -1.13246530020E+010   0.00000000000E+000   5.30558922401E+004   0.00000000000E+000  -2.04003139928E+008  -1.53880101780E+003   0.00000000000E+000   0.00000000000E+000   0.00000000000E+000   0.00000000000E+000   0.00000000000E+000   0.00000000000E+000   0.00000000000E+000   0.00000000000E+000   0.00000000000E+000   0.00000000000E+000   0.00000000000E+000   0.00000000000E+000   0.00000000000E+000   0.00000000000E+000   0.00000000000E+000   0.00000000000E+000
    -2.04003107187E+008   0.00000000000E+000  -5.50039512744E+004   0.00000000000E+000  -2.13398063695E+009   0.00000000000E+000   0.00000000000E+000   0.00000000000E+000   0.00000000000E+000   0.00000000000E+000  -2.78327406252E+009   0.00000000000E+000   9.82036617200E+007   0.00000000000E+000   1.93168638404E+004   0.00000000000E+000  -1.13240534590E+010   0.00000000000E+000   2.04003107187E+008   0.00000000000E+000   5.89328049369E+004   0.00000000000E+000   0.00000000000E+000   0.00000000000E+000   0.00000000000E+000   0.00000000000E+000   0.00000000000E+000   0.00000000000E+000   0.00000000000E+000   0.00000000000E+000   0.00000000000E+000   0.00000000000E+000   0.00000000000E+000   0.00000000000E+000   0.00000000000E+000   0.00000000000E+000   0.00000000000E+000
    -1.52537231875E+003   5.89615807205E+004   0.00000000000E+000   0.00000000000E+000   0.00000000000E+000   0.00000000000E+000   0.00000000000E+000   0.00000000000E+000   0.00000000000E+000   0.00000000000E+000   0.00000000000E+000  -2.51327388742E+009   0.00000000000E+000   1.55376442530E+003   0.00000000000E+000   4.40412069858E+004   0.00000000000E+000  -1.95913504720E+010   1.52537231875E+003  -5.89615807205E+004   0.00000000000E+000   0.00000000000E+000   0.00000000000E+000   0.00000000000E+000   0.00000000000E+000   0.00000000000E+000   0.00000000000E+000   0.00000000000E+000   0.00000000000E+000   0.00000000000E+000   0.00000000000E+000   0.00000000000E+000   0.00000000000E+000   0.00000000000E+000   0.00000000000E+000   0.00000000000E+000   0.00000000000E+000
