
Linearized model: Predictions were generated on 13-Feb-2024 at 11:29:37 using OpenFAST, compiled as a 64-bit application using single precision at commit v3.5.1
 linked with  NWTC Subroutine Library; ElastoDyn; InflowWind; AeroDyn; ServoDyn; HydroDyn; MAP++ (<1.20.10>, <Oct-20-2023>)

Description from the FAST input file: CCT-9 Campign 4 model. Input files to be run with OpenFAST 3.5.0. GitHub branch from Lu Wang (https://github.com/luwang00/openfast/tree/dev) compiled on March 7, 2023.

Simulation information:
   Simulation time:                  1215.0250 s
   Rotor Speed:                         0.7916 rad/s
   Azimuth:                             3.3248 rad
   Wind Speed:                         16.0000 m/s
   Number of continuous states:         0
   Number of discrete states:           0
   Number of constraint states:         0
   Number of inputs:                  303
   Number of outputs:                   1
   Jacobians included in this file?    No

Order of inputs:
     Column   Operating Point                                                   Rotating Frame? Derivative Order Description
   ---------- ---------------                                                   --------------- ---------------- -----------
          1    -1.08005075455E+001                                                     F               0         X-component position of node 1 (hub), m
          2     0.00000000000E+000                                                     F               0         Y-component position of node 1 (hub), m
          3     1.49740173340E+002                                                     F               0         Z-component position of node 1 (hub), m
          4     1.35412454605E+001                                                     F               0         X-component position of node 2 (blade 1, node 1), m
          5    -7.04671573639E+000                                                     F               0         Y-component position of node 2 (blade 1, node 1), m
          6     1.44411682129E+002                                                     F               0         Z-component position of node 2 (blade 1, node 1), m
          7     1.32590370178E+001                                                     F               0         X-component position of node 3 (blade 1, node 2), m
          8    -6.73743152618E+000                                                     F               0         Y-component position of node 3 (blade 1, node 2), m
          9     1.43144134521E+002                                                     F               0         Z-component position of node 3 (blade 1, node 2), m
         10     9.42148399353E+000                                                     F               0         X-component position of node 4 (blade 1, node 3), m
         11    -2.53169989586E+000                                                     F               0         Y-component position of node 4 (blade 1, node 3), m
         12     1.25907699585E+002                                                     F               0         Z-component position of node 4 (blade 1, node 3), m
         13     8.60387229919E+000                                                     F               0         X-component position of node 5 (blade 1, node 4), m
         14    -1.63564372063E+000                                                     F               0         Y-component position of node 5 (blade 1, node 4), m
         15     1.22235374451E+002                                                     F               0         Z-component position of node 5 (blade 1, node 4), m
         16     7.78610229492E+000                                                     F               0         X-component position of node 6 (blade 1, node 5), m
         17    -7.39417433739E-001                                                     F               0         Y-component position of node 6 (blade 1, node 5), m
         18     1.18562347412E+002                                                     F               0         Z-component position of node 6 (blade 1, node 5), m
         19     6.96848630905E+000                                                     F               0         X-component position of node 7 (blade 1, node 6), m
         20     1.56642138958E-001                                                     F               0         Y-component position of node 7 (blade 1, node 6), m
         21     1.14890007019E+002                                                     F               0         Z-component position of node 7 (blade 1, node 6), m
         22     6.15086698532E+000                                                     F               0         X-component position of node 8 (blade 1, node 7), m
         23     1.05270457268E+000                                                     F               0         Y-component position of node 8 (blade 1, node 7), m
         24     1.11217658997E+002                                                     F               0         Z-component position of node 8 (blade 1, node 7), m
         25     5.33310127258E+000                                                     F               0         X-component position of node 9 (blade 1, node 8), m
         26     1.94892752171E+000                                                     F               0         Y-component position of node 9 (blade 1, node 8), m
         27     1.07544647217E+002                                                     F               0         Z-component position of node 9 (blade 1, node 8), m
         28     4.51548099518E+000                                                     F               0         X-component position of node 10 (blade 1, node 9), m
         29     2.84499049187E+000                                                     F               0         Y-component position of node 10 (blade 1, node 9), m
         30     1.03872299194E+002                                                     F               0         Z-component position of node 10 (blade 1, node 9), m
         31     3.69786477089E+000                                                     F               0         X-component position of node 11 (blade 1, node 10), m
         32     3.74105000496E+000                                                     F               0         Y-component position of node 11 (blade 1, node 10), m
         33     1.00199951172E+002                                                     F               0         Z-component position of node 11 (blade 1, node 10), m
         34     2.88024425507E+000                                                     F               0         X-component position of node 12 (blade 1, node 11), m
         35     4.63711261749E+000                                                     F               0         Y-component position of node 12 (blade 1, node 11), m
         36     9.65276031494E+001                                                     F               0         Z-component position of node 12 (blade 1, node 11), m
         37     2.06248426437E+000                                                     F               0         X-component position of node 13 (blade 1, node 12), m
         38     5.53333282471E+000                                                     F               0         Y-component position of node 13 (blade 1, node 12), m
         39     9.28546066284E+001                                                     F               0         Z-component position of node 13 (blade 1, node 12), m
         40     1.24486339092E+000                                                     F               0         X-component position of node 14 (blade 1, node 13), m
         41     6.42939519882E+000                                                     F               0         Y-component position of node 14 (blade 1, node 13), m
         42     8.91822509766E+001                                                     F               0         Z-component position of node 14 (blade 1, node 13), m
         43     4.27247673273E-001                                                     F               0         X-component position of node 15 (blade 1, node 14), m
         44     7.32545518875E+000                                                     F               0         Y-component position of node 15 (blade 1, node 14), m
         45     8.55099105835E+001                                                     F               0         Z-component position of node 15 (blade 1, node 14), m
         46    -3.90520751476E-001                                                     F               0         X-component position of node 16 (blade 1, node 15), m
         47     8.22167968750E+000                                                     F               0         Y-component position of node 16 (blade 1, node 15), m
         48     8.18368911743E+001                                                     F               0         Z-component position of node 16 (blade 1, node 15), m
         49    -1.20813715458E+000                                                     F               0         X-component position of node 17 (blade 1, node 16), m
         50     9.11774063110E+000                                                     F               0         Y-component position of node 17 (blade 1, node 16), m
         51     7.81645507812E+001                                                     F               0         Z-component position of node 17 (blade 1, node 16), m
         52    -2.02575826645E+000                                                     F               0         X-component position of node 18 (blade 1, node 17), m
         53     1.00138034821E+001                                                     F               0         Y-component position of node 18 (blade 1, node 17), m
         54     7.44921875000E+001                                                     F               0         Z-component position of node 18 (blade 1, node 17), m
         55    -2.84337496758E+000                                                     F               0         X-component position of node 19 (blade 1, node 18), m
         56     1.09098644257E+001                                                     F               0         Y-component position of node 19 (blade 1, node 18), m
         57     7.08198471069E+001                                                     F               0         Z-component position of node 19 (blade 1, node 18), m
         58    -3.66113686562E+000                                                     F               0         X-component position of node 20 (blade 1, node 19), m
         59     1.18060836792E+001                                                     F               0         Y-component position of node 20 (blade 1, node 19), m
         60     6.71468505859E+001                                                     F               0         Z-component position of node 20 (blade 1, node 19), m
         61    -4.47875785828E+000                                                     F               0         X-component position of node 21 (blade 1, node 20), m
         62     1.27021474838E+001                                                     F               0         Y-component position of node 21 (blade 1, node 20), m
         63     6.34744987488E+001                                                     F               0         Z-component position of node 21 (blade 1, node 20), m
         64    -5.29637479782E+000                                                     F               0         X-component position of node 22 (blade 1, node 21), m
         65     1.35982074738E+001                                                     F               0         Y-component position of node 22 (blade 1, node 21), m
         66     5.98021469116E+001                                                     F               0         Z-component position of node 22 (blade 1, node 21), m
         67    -6.11414051056E+000                                                     F               0         X-component position of node 23 (blade 1, node 22), m
         68     1.44944314957E+001                                                     F               0         Y-component position of node 23 (blade 1, node 22), m
         69     5.61291389465E+001                                                     F               0         Z-component position of node 23 (blade 1, node 22), m
         70    -6.93176174164E+000                                                     F               0         X-component position of node 24 (blade 1, node 23), m
         71     1.53904943466E+001                                                     F               0         Y-component position of node 24 (blade 1, node 23), m
         72     5.24567871094E+001                                                     F               0         Z-component position of node 24 (blade 1, node 23), m
         73    -7.74937820435E+000                                                     F               0         X-component position of node 25 (blade 1, node 24), m
         74     1.62865543365E+001                                                     F               0         Y-component position of node 25 (blade 1, node 24), m
         75     4.87844390869E+001                                                     F               0         Z-component position of node 25 (blade 1, node 24), m
         76    -8.56699466705E+000                                                     F               0         X-component position of node 26 (blade 1, node 25), m
         77     1.71826152802E+001                                                     F               0         Y-component position of node 26 (blade 1, node 25), m
         78     4.51120986938E+001                                                     F               0         Z-component position of node 26 (blade 1, node 25), m
         79    -9.38476085663E+000                                                     F               0         X-component position of node 27 (blade 1, node 26), m
         80     1.80788383484E+001                                                     F               0         Y-component position of node 27 (blade 1, node 26), m
         81     4.14390792847E+001                                                     F               0         Z-component position of node 27 (blade 1, node 26), m
         82    -1.02023773193E+001                                                     F               0         X-component position of node 28 (blade 1, node 27), m
         83     1.89748973846E+001                                                     F               0         Y-component position of node 28 (blade 1, node 27), m
         84     3.77667503357E+001                                                     F               0         Z-component position of node 28 (blade 1, node 27), m
         85    -1.08955440521E+001                                                     F               0         X-component position of node 29 (blade 1, node 28), m
         86     1.97345676422E+001                                                     F               0         Y-component position of node 29 (blade 1, node 28), m
         87     3.46533775330E+001                                                     F               0         Z-component position of node 29 (blade 1, node 28), m
         88     1.54974851608E+001                                                     F               0         X-component position of node 30 (blade 2, node 1), m
         89    -4.30501699448E+000                                                     F               0         Y-component position of node 30 (blade 2, node 1), m
         90     1.53396728516E+002                                                     F               0         Z-component position of node 30 (blade 2, node 1), m
         91     1.56866455078E+001                                                     F               0         X-component position of node 31 (blade 2, node 2), m
         92    -3.33510255814E+000                                                     F               0         Y-component position of node 31 (blade 2, node 2), m
         93     1.54294189453E+002                                                     F               0         Z-component position of node 31 (blade 2, node 2), m
         94     1.82589225769E+001                                                     F               0         X-component position of node 32 (blade 2, node 3), m
         95     9.85409259796E+000                                                     F               0         Y-component position of node 32 (blade 2, node 3), m
         96     1.66498229980E+002                                                     F               0         Z-component position of node 32 (blade 2, node 3), m
         97     1.88069648743E+001                                                     F               0         X-component position of node 33 (blade 2, node 4), m
         98     1.26641445160E+001                                                     F               0         Y-component position of node 33 (blade 2, node 4), m
         99     1.69098388672E+002                                                     F               0         Z-component position of node 33 (blade 2, node 4), m
        100     1.93551044464E+001                                                     F               0         X-component position of node 34 (blade 2, node 5), m
        101     1.54747104645E+001                                                     F               0         Y-component position of node 34 (blade 2, node 5), m
        102     1.71699005127E+002                                                     F               0         Z-component position of node 34 (blade 2, node 5), m
        103     1.99031486511E+001                                                     F               0         X-component position of node 35 (blade 2, node 6), m
        104     1.82847614288E+001                                                     F               0         Y-component position of node 35 (blade 2, node 6), m
        105     1.74299163818E+002                                                     F               0         Z-component position of node 35 (blade 2, node 6), m
        106     2.04511909485E+001                                                     F               0         X-component position of node 36 (blade 2, node 7), m
        107     2.10948162079E+001                                                     F               0         Y-component position of node 36 (blade 2, node 7), m
        108     1.76899307251E+002                                                     F               0         Z-component position of node 36 (blade 2, node 7), m
        109     2.09993305206E+001                                                     F               0         X-component position of node 37 (blade 2, node 8), m
        110     2.39053802490E+001                                                     F               0         Y-component position of node 37 (blade 2, node 8), m
        111     1.79499923706E+002                                                     F               0         Z-component position of node 37 (blade 2, node 8), m
        112     2.15473728180E+001                                                     F               0         X-component position of node 38 (blade 2, node 9), m
        113     2.67154312134E+001                                                     F               0         Y-component position of node 38 (blade 2, node 9), m
        114     1.82100082397E+002                                                     F               0         Z-component position of node 38 (blade 2, node 9), m
        115     2.20954132080E+001                                                     F               0         X-component position of node 39 (blade 2, node 10), m
        116     2.95254859924E+001                                                     F               0         Y-component position of node 39 (blade 2, node 10), m
        117     1.84700241089E+002                                                     F               0         Z-component position of node 39 (blade 2, node 10), m
        118     2.26434574127E+001                                                     F               0         X-component position of node 40 (blade 2, node 11), m
        119     3.23355407715E+001                                                     F               0         Y-component position of node 40 (blade 2, node 11), m
        120     1.87300399780E+002                                                     F               0         Z-component position of node 40 (blade 2, node 11), m
        121     2.31915969849E+001                                                     F               0         X-component position of node 41 (blade 2, node 12), m
        122     3.51461067200E+001                                                     F               0         Y-component position of node 41 (blade 2, node 12), m
        123     1.89901016235E+002                                                     F               0         Z-component position of node 41 (blade 2, node 12), m
        124     2.37396373749E+001                                                     F               0         X-component position of node 42 (blade 2, node 13), m
        125     3.79561576843E+001                                                     F               0         Y-component position of node 42 (blade 2, node 13), m
        126     1.92501174927E+002                                                     F               0         Z-component position of node 42 (blade 2, node 13), m
        127     2.42876815796E+001                                                     F               0         X-component position of node 43 (blade 2, node 14), m
        128     4.07662162781E+001                                                     F               0         Y-component position of node 43 (blade 2, node 14), m
        129     1.95101333618E+002                                                     F               0         Z-component position of node 43 (blade 2, node 14), m
        130     2.48358211517E+001                                                     F               0         X-component position of node 44 (blade 2, node 15), m
        131     4.35767784119E+001                                                     F               0         Y-component position of node 44 (blade 2, node 15), m
        132     1.97701950073E+002                                                     F               0         Z-component position of node 44 (blade 2, node 15), m
        133     2.53838634491E+001                                                     F               0         X-component position of node 45 (blade 2, node 16), m
        134     4.63868255615E+001                                                     F               0         Y-component position of node 45 (blade 2, node 16), m
        135     2.00302108765E+002                                                     F               0         Z-component position of node 45 (blade 2, node 16), m
        136     2.59319057465E+001                                                     F               0         X-component position of node 46 (blade 2, node 17), m
        137     4.91968803406E+001                                                     F               0         Y-component position of node 46 (blade 2, node 17), m
        138     2.02902267456E+002                                                     F               0         Z-component position of node 46 (blade 2, node 17), m
        139     2.64799461365E+001                                                     F               0         X-component position of node 47 (blade 2, node 18), m
        140     5.20069351196E+001                                                     F               0         Y-component position of node 47 (blade 2, node 18), m
        141     2.05502410889E+002                                                     F               0         Z-component position of node 47 (blade 2, node 18), m
        142     2.70280876160E+001                                                     F               0         X-component position of node 48 (blade 2, node 19), m
        143     5.48174972534E+001                                                     F               0         Y-component position of node 48 (blade 2, node 19), m
        144     2.08103042603E+002                                                     F               0         Z-component position of node 48 (blade 2, node 19), m
        145     2.75761299133E+001                                                     F               0         X-component position of node 49 (blade 2, node 20), m
        146     5.76275520325E+001                                                     F               0         Y-component position of node 49 (blade 2, node 20), m
        147     2.10703201294E+002                                                     F               0         Z-component position of node 49 (blade 2, node 20), m
        148     2.81241722107E+001                                                     F               0         X-component position of node 50 (blade 2, node 21), m
        149     6.04376144409E+001                                                     F               0         Y-component position of node 50 (blade 2, node 21), m
        150     2.13303344727E+002                                                     F               0         Z-component position of node 50 (blade 2, node 21), m
        151     2.86723117828E+001                                                     F               0         X-component position of node 51 (blade 2, node 22), m
        152     6.32481727600E+001                                                     F               0         Y-component position of node 51 (blade 2, node 22), m
        153     2.15903976440E+002                                                     F               0         Z-component position of node 51 (blade 2, node 22), m
        154     2.92203559875E+001                                                     F               0         X-component position of node 52 (blade 2, node 23), m
        155     6.60582199097E+001                                                     F               0         Y-component position of node 52 (blade 2, node 23), m
        156     2.18504135132E+002                                                     F               0         Z-component position of node 52 (blade 2, node 23), m
        157     2.97683963776E+001                                                     F               0         X-component position of node 53 (blade 2, node 24), m
        158     6.88682785034E+001                                                     F               0         Y-component position of node 53 (blade 2, node 24), m
        159     2.21104278564E+002                                                     F               0         Z-component position of node 53 (blade 2, node 24), m
        160     3.03164386749E+001                                                     F               0         X-component position of node 54 (blade 2, node 25), m
        161     7.16783294678E+001                                                     F               0         Y-component position of node 54 (blade 2, node 25), m
        162     2.23704437256E+002                                                     F               0         Z-component position of node 54 (blade 2, node 25), m
        163     3.08645801544E+001                                                     F               0         X-component position of node 55 (blade 2, node 26), m
        164     7.44888916016E+001                                                     F               0         Y-component position of node 55 (blade 2, node 26), m
        165     2.26305068970E+002                                                     F               0         Z-component position of node 55 (blade 2, node 26), m
        166     3.14126205444E+001                                                     F               0         X-component position of node 56 (blade 2, node 27), m
        167     7.72989501953E+001                                                     F               0         Y-component position of node 56 (blade 2, node 27), m
        168     2.28905227661E+002                                                     F               0         Z-component position of node 56 (blade 2, node 27), m
        169     3.18772411346E+001                                                     F               0         X-component position of node 57 (blade 2, node 28), m
        170     7.96812591553E+001                                                     F               0         Y-component position of node 57 (blade 2, node 28), m
        171     2.31109588623E+002                                                     F               0         Z-component position of node 57 (blade 2, node 28), m
        172     1.50985965729E+001                                                     F               0         X-component position of node 58 (blade 3, node 1), m