
Linearized model: Predictions were generated on 31-Jan-2024 at 12:35:17 using OpenFAST, compiled as a 64-bit application using single precision at commit v3.5.1
 linked with  NWTC Subroutine Library; ElastoDyn; InflowWind; AeroDyn; ServoDyn; HydroDyn; MAP++ (<1.20.10>, <Oct-20-2023>)

Description from the FAST input file: CCT-9 Campign 4 model. Input files to be run with OpenFAST 3.5.0. GitHub branch from Lu Wang (https://github.com/luwang00/openfast/tree/dev) compiled on March 7, 2023.

Simulation information:
   Simulation time:                   500.0000 s
   Rotor Speed:                         0.8935 rad/s
   Azimuth:                             0.7463 rad
   Wind Speed:                         10.0000 m/s
   Number of continuous states:         0
   Number of discrete states:           0
   Number of constraint states:         0
   Number of inputs:                 1746
   Number of outputs:                   4
   Jacobians included in this file?    No

Order of inputs:
     Column   Operating Point                     Rotating Frame? Derivative Order Description
   ---------- ---------------                     --------------- ---------------- -----------
          1    8.516E+00                                 F               0         Tower X translation displacement, node 1, m
          2   -1.355E+00                                 F               0         Tower Y translation displacement, node 1, m
          3   -7.079E-02                                 F               0         Tower Z translation displacement, node 1, m
          4    8.752E+00                                 F               0         Tower X translation displacement, node 2, m
          5   -1.887E+00                                 F               0         Tower Y translation displacement, node 2, m
          6   -8.455E-02                                 F               0         Tower Z translation displacement, node 2, m
          7    9.002E+00                                 F               0         Tower X translation displacement, node 3, m
          8   -2.420E+00                                 F               0         Tower Y translation displacement, node 3, m
          9   -9.856E-02                                 F               0         Tower Z translation displacement, node 3, m
         10    9.262E+00                                 F               0         Tower X translation displacement, node 4, m
         11   -2.952E+00                                 F               0         Tower Y translation displacement, node 4, m
         12   -1.128E-01                                 F               0         Tower Z translation displacement, node 4, m
         13    9.530E+00                                 F               0         Tower X translation displacement, node 5, m
         14   -3.485E+00                                 F               0         Tower Y translation displacement, node 5, m
         15   -1.271E-01                                 F               0         Tower Z translation displacement, node 5, m
         16    9.804E+00                                 F               0         Tower X translation displacement, node 6, m
         17   -4.017E+00                                 F               0         Tower Y translation displacement, node 6, m
         18   -1.417E-01                                 F               0         Tower Z translation displacement, node 6, m
         19    1.008E+01                                 F               0         Tower X translation displacement, node 7, m
         20   -4.549E+00                                 F               0         Tower Y translation displacement, node 7, m
         21   -1.563E-01                                 F               0         Tower Z translation displacement, node 7, m
         22    1.036E+01                                 F               0         Tower X translation displacement, node 8, m
         23   -5.082E+00                                 F               0         Tower Y translation displacement, node 8, m
         24   -1.709E-01                                 F               0         Tower Z translation displacement, node 8, m
         25    1.065E+01                                 F               0         Tower X translation displacement, node 9, m
         26   -5.614E+00                                 F               0         Tower Y translation displacement, node 9, m
         27   -1.857E-01                                 F               0         Tower Z translation displacement, node 9, m
         28    1.093E+01                                 F               0         Tower X translation displacement, node 10, m
         29   -6.146E+00                                 F               0         Tower Y translation displacement, node 10, m
         30   -2.004E-01                                 F               0         Tower Z translation displacement, node 10, m
         31    1.122E+01                                 F               0         Tower X translation displacement, node 11, m
         32   -6.679E+00                                 F               0         Tower Y translation displacement, node 11, m
         33   -2.152E-01                                 F               0         Tower Z translation displacement, node 11, m
         34    9.998E-01,  7.486E-03, -1.841E-02         F               0         Tower X orientation angle, node 1, rad
         35   -6.684E-03,  9.990E-01,  4.325E-02         F               0         Tower Y orientation angle, node 1, rad
         36    1.872E-02, -4.312E-02,  9.989E-01         F               0         Tower Z orientation angle, node 1, rad
         37    9.998E-01,  7.530E-03, -1.943E-02         F               0         Tower X orientation angle, node 2, rad
         38   -6.684E-03,  9.990E-01,  4.325E-02         F               0         Tower Y orientation angle, node 2, rad
         39    1.974E-02, -4.311E-02,  9.989E-01         F               0         Tower Z orientation angle, node 2, rad
         40    9.998E-01,  7.568E-03, -2.031E-02         F               0         Tower X orientation angle, node 3, rad
         41   -6.684E-03,  9.990E-01,  4.325E-02         F               0         Tower Y orientation angle, node 3, rad
         42    2.061E-02, -4.310E-02,  9.989E-01         F               0         Tower Z orientation angle, node 3, rad
         43    9.998E-01,  7.599E-03, -2.103E-02         F               0         Tower X orientation angle, node 4, rad
         44   -6.684E-03,  9.990E-01,  4.325E-02         F               0         Tower Y orientation angle, node 4, rad
         45    2.133E-02, -4.310E-02,  9.988E-01         F               0         Tower Z orientation angle, node 4, rad
         46    9.997E-01,  7.623E-03, -2.159E-02         F               0         Tower X orientation angle, node 5, rad
         47   -6.684E-03,  9.990E-01,  4.325E-02         F               0         Tower Y orientation angle, node 5, rad
         48    2.190E-02, -4.309E-02,  9.988E-01         F               0         Tower Z orientation angle, node 5, rad
         49    9.997E-01,  7.642E-03, -2.203E-02         F               0         Tower X orientation angle, node 6, rad
         50   -6.684E-03,  9.990E-01,  4.325E-02         F               0         Tower Y orientation angle, node 6, rad
         51    2.234E-02, -4.309E-02,  9.988E-01         F               0         Tower Z orientation angle, node 6, rad
         52    9.997E-01,  7.655E-03, -2.233E-02         F               0         Tower X orientation angle, node 7, rad
         53   -6.684E-03,  9.990E-01,  4.325E-02         F               0         Tower Y orientation angle, node 7, rad
         54    2.264E-02, -4.309E-02,  9.988E-01         F               0         Tower Z orientation angle, node 7, rad
         55    9.997E-01,  7.664E-03, -2.254E-02         F               0         Tower X orientation angle, node 8, rad
         56   -6.684E-03,  9.990E-01,  4.325E-02         F               0         Tower Y orientation angle, node 8, rad
         57    2.285E-02, -4.308E-02,  9.988E-01         F               0         Tower Z orientation angle, node 8, rad
         58    9.997E-01,  7.670E-03, -2.267E-02         F               0         Tower X orientation angle, node 9, rad
         59   -6.684E-03,  9.990E-01,  4.325E-02         F               0         Tower Y orientation angle, node 9, rad
         60    2.298E-02, -4.308E-02,  9.988E-01         F               0         Tower Z orientation angle, node 9, rad
         61    9.997E-01,  7.673E-03, -2.274E-02         F               0         Tower X orientation angle, node 10, rad
         62   -6.684E-03,  9.990E-01,  4.325E-02         F               0         Tower Y orientation angle, node 10, rad
         63    2.305E-02, -4.308E-02,  9.988E-01         F               0         Tower Z orientation angle, node 10, rad
         64    9.997E-01,  7.674E-03, -2.277E-02         F               0         Tower X orientation angle, node 11, rad
         65   -6.684E-03,  9.990E-01,  4.325E-02         F               0         Tower Y orientation angle, node 11, rad
         66    2.308E-02, -4.308E-02,  9.988E-01         F               0         Tower Z orientation angle, node 11, rad
         67    1.784E-04                                 F               0         Tower X translation velocity, node 1, m/s
         68   -6.178E-07                                 F               0         Tower Y translation velocity, node 1, m/s
         69    1.028E-03                                 F               0         Tower Z translation velocity, node 1, m/s
         70    1.809E-04                                 F               0         Tower X translation velocity, node 2, m/s
         71   -1.018E-06                                 F               0         Tower Y translation velocity, node 2, m/s
         72    1.028E-03                                 F               0         Tower Z translation velocity, node 2, m/s
         73    1.930E-04                                 F               0         Tower X translation velocity, node 3, m/s
         74   -1.369E-06                                 F               0         Tower Y translation velocity, node 3, m/s
         75    1.027E-03                                 F               0         Tower Z translation velocity, node 3, m/s
         76    2.137E-04                                 F               0         Tower X translation velocity, node 4, m/s
         77   -1.672E-06                                 F               0         Tower Y translation velocity, node 4, m/s
         78    1.027E-03                                 F               0         Tower Z translation velocity, node 4, m/s
         79    2.427E-04                                 F               0         Tower X translation velocity, node 5, m/s
         80   -1.925E-06                                 F               0         Tower Y translation velocity, node 5, m/s
         81    1.026E-03                                 F               0         Tower Z translation velocity, node 5, m/s
         82    2.799E-04                                 F               0         Tower X translation velocity, node 6, m/s
         83   -2.127E-06                                 F               0         Tower Y translation velocity, node 6, m/s
         84    1.026E-03                                 F               0         Tower Z translation velocity, node 6, m/s
         85    3.240E-04                                 F               0         Tower X translation velocity, node 7, m/s
         86   -2.282E-06                                 F               0         Tower Y translation velocity, node 7, m/s
         87    1.025E-03                                 F               0         Tower Z translation velocity, node 7, m/s
         88    3.750E-04                                 F               0         Tower X translation velocity, node 8, m/s
         89   -2.390E-06                                 F               0         Tower Y translation velocity, node 8, m/s
         90    1.023E-03                                 F               0         Tower Z translation velocity, node 8, m/s
         91    4.317E-04                                 F               0         Tower X translation velocity, node 9, m/s
         92   -2.457E-06                                 F               0         Tower Y translation velocity, node 9, m/s
         93    1.022E-03                                 F               0         Tower Z translation velocity, node 9, m/s
         94    4.928E-04                                 F               0         Tower X translation velocity, node 10, m/s
         95   -2.493E-06                                 F               0         Tower Y translation velocity, node 10, m/s
         96    1.021E-03                                 F               0         Tower Z translation velocity, node 10, m/s
         97    5.569E-04                                 F               0         Tower X translation velocity, node 11, m/s
         98   -2.507E-06                                 F               0         Tower Y translation velocity, node 11, m/s
         99    1.019E-03                                 F               0         Tower Z translation velocity, node 11, m/s
        100    1.140E+01                                 F               0         Hub X translation displacement, node 1, m
        101   -7.100E+00                                 F               0         Hub Y translation displacement, node 1, m
        102    2.137E-02                                 F               0         Hub Z translation displacement, node 1, m
        103    9.918E-01,  1.214E-02, -1.270E-01         F               0         Hub X orientation angle, node 1, rad
        104    8.163E-02,  7.049E-01,  7.046E-01         F               0         Hub Y orientation angle, node 1, rad
        105    9.811E-02, -7.092E-01,  6.982E-01         F               0         Hub Z orientation angle, node 1, rad
        106    8.862E-01                                 F               0         Hub X rotation velocity, node 1, rad/s
        107    1.085E-02                                 F               0         Hub Y rotation velocity, node 1, rad/s
        108   -1.135E-01                                 F               0         Hub Z rotation velocity, node 1, rad/s
        109    9.890E-01, -8.782E-03, -1.479E-01         F               0         Blade root 1 X orientation angle, node 1, rad
        110    1.110E-01,  7.050E-01,  7.005E-01         F               0         Blade root 1 Y orientation angle, node 1, rad
        111    9.811E-02, -7.092E-01,  6.982E-01         F               0         Blade root 1 Z orientation angle, node 1, rad
        112    9.901E-01,  4.081E-02, -1.345E-01         F               0         Blade root 2 X orientation angle, node 1, rad
        113    7.356E-02, -9.658E-01,  2.485E-01         F               0         Blade root 2 Y orientation angle, node 1, rad
        114   -1.197E-01, -2.559E-01, -9.593E-01         F               0         Blade root 2 Z orientation angle, node 1, rad
        115    9.951E-01,  4.366E-03, -9.860E-02         F               0         Blade root 3 X orientation angle, node 1, rad
        116   -9.630E-02,  2.619E-01, -9.603E-01         F               0         Blade root 3 Y orientation angle, node 1, rad
        117    2.164E-02,  9.651E-01,  2.611E-01         F               0         Blade root 3 Z orientation angle, node 1, rad
        118    1.136E+01                                 F               0         Blade 1 X translation displacement, node 1, m
        119   -1.103E+01                                 F               0         Blade 1 Y translation displacement, node 1, m
        120   -1.620E+00                                 F               0         Blade 1 Z translation displacement, node 1, m
        121    1.136E+01                                 F               0         Blade 1 X translation displacement, node 2, m
        122   -1.198E+01                                 F               0         Blade 1 Y translation displacement, node 2, m
        123   -2.016E+00                                 F               0         Blade 1 Z translation displacement, node 2, m
        124    1.124E+01                                 F               0         Blade 1 X translation displacement, node 3, m
        125   -2.485E+01                                 F               0         Blade 1 Y translation displacement, node 3, m
        126   -7.396E+00                                 F               0         Blade 1 Z translation displacement, node 3, m
        127    1.121E+01                                 F               0         Blade 1 X translation displacement, node 4, m
        128   -2.759E+01                                 F               0         Blade 1 Y translation displacement, node 4, m
        129   -8.542E+00                                 F               0         Blade 1 Z translation displacement, node 4, m
        130    1.119E+01                                 F               0         Blade 1 X translation displacement, node 5, m
        131   -3.033E+01                                 F               0         Blade 1 Y translation displacement, node 5, m
        132   -9.688E+00                                 F               0         Blade 1 Z translation displacement, node 5, m
        133    1.116E+01                                 F               0         Blade 1 X translation displacement, node 6, m
        134   -3.308E+01                                 F               0         Blade 1 Y translation displacement, node 6, m
        135   -1.083E+01                                 F               0         Blade 1 Z translation displacement, node 6, m
        136    1.114E+01                                 F               0         Blade 1 X translation displacement, node 7, m
        137   -3.582E+01                                 F               0         Blade 1 Y translation displacement, node 7, m
        138   -1.198E+01                                 F               0         Blade 1 Z translation displacement, node 7, m
        139    1.111E+01                                 F               0         Blade 1 X translation displacement, node 8, m
        140   -3.856E+01                                 F               0         Blade 1 Y translation displacement, node 8, m
        141   -1.313E+01                                 F               0         Blade 1 Z translation displacement, node 8, m
        142    1.109E+01                                 F               0         Blade 1 X translation displacement, node 9, m
        143   -4.131E+01                                 F               0         Blade 1 Y translation displacement, node 9, m
        144   -1.427E+01                                 F               0         Blade 1 Z translation displacement, node 9, m
        145    1.107E+01                                 F               0         Blade 1 X translation displacement, node 10, m
        146   -4.405E+01                                 F               0         Blade 1 Y translation displacement, node 10, m
        147   -1.542E+01                                 F               0         Blade 1 Z translation displacement, node 10, m
        148    1.104E+01                                 F               0         Blade 1 X translation displacement, node 11, m
        149   -4.679E+01                                 F               0         Blade 1 Y translation displacement, node 11, m
        150   -1.657E+01                                 F               0         Blade 1 Z translation displacement, node 11, m
        151    1.102E+01                                 F               0         Blade 1 X translation displacement, node 12, m
        152   -4.953E+01                                 F               0         Blade 1 Y translation displacement, node 12, m
        153   -1.771E+01                                 F               0         Blade 1 Z translation displacement, node 12, m
        154    1.099E+01                                 F               0         Blade 1 X translation displacement, node 13, m
        155   -5.228E+01                                 F               0         Blade 1 Y translation displacement, node 13, m
        156   -1.886E+01                                 F               0         Blade 1 Z translation displacement, node 13, m
        157    1.097E+01                                 F               0         Blade 1 X translation displacement, node 14, m
        158   -5.502E+01                                 F               0         Blade 1 Y translation displacement, node 14, m
        159   -2.000E+01                                 F               0         Blade 1 Z translation displacement, node 14, m
        160    1.094E+01                                 F               0         Blade 1 X translation displacement, node 15, m
        161   -5.776E+01                                 F               0         Blade 1 Y translation displacement, node 15, m
        162   -2.115E+01                                 F               0         Blade 1 Z translation displacement, node 15, m
        163    1.092E+01                                 F               0         Blade 1 X translation displacement, node 16, m
        164   -6.051E+01                                 F               0         Blade 1 Y translation displacement, node 16, m
        165   -2.230E+01                                 F               0         Blade 1 Z translation displacement, node 16, m
        166    1.089E+01                                 F               0         Blade 1 X translation displacement, node 17, m
        167   -6.325E+01                                 F               0         Blade 1 Y translation displacement, node 17, m
        168   -2.344E+01                                 F               0         Blade 1 Z translation displacement, node 17, m
        169    1.087E+01                                 F               0         Blade 1 X translation displacement, node 18, m
        170   -6.599E+01                                 F               0         Blade 1 Y translation displacement, node 18, m
        171   -2.459E+01                                 F               0         Blade 1 Z translation displacement, node 18, m
        172    1.084E+01                                 F               0         Blade 1 X translation displacement, node 19, m
        173   -6.873E+01                                 F               0         Blade 1 Y translation displacement, node 19, m
        174   -2.573E+01                                 F               0         Blade 1 Z translation displacement, node 19, m
        175    1.082E+01                                 F               0         Blade 1 X translation displacement, node 20, m
        176   -7.148E+01                                 F               0         Blade 1 Y translation displacement, node 20, m
        177   -2.688E+01                                 F               0         Blade 1 Z translation displacement, node 20, m
        178    1.079E+01                                 F               0         Blade 1 X translation displacement, node 21, m
        179   -7.422E+01                                 F               0         Blade 1 Y translation displacement, node 21, m
        180   -2.803E+01                                 F               0         Blade 1 Z translation displacement, node 21, m
        181    1.077E+01                                 F               0         Blade 1 X translation displacement, node 22, m
        182   -7.696E+01                                 F               0         Blade 1 Y translation displacement, node 22, m
        183   -2.917E+01                                 F               0         Blade 1 Z translation displacement, node 22, m
        184    1.074E+01                                 F               0         Blade 1 X translation displacement, node 23, m
        185   -7.971E+01                                 F               0         Blade 1 Y translation displacement, node 23, m
        186   -3.032E+01                                 F               0         Blade 1 Z translation displacement, node 23, m
        187    1.072E+01                                 F               0         Blade 1 X translation displacement, node 24, m
        188   -8.245E+01                                 F               0         Blade 1 Y translation displacement, node 24, m
        189   -3.147E+01                                 F               0         Blade 1 Z translation displacement, node 24, m
        190    1.069E+01                                 F               0         Blade 1 X translation displacement, node 25, m
        191   -8.519E+01                                 F               0         Blade 1 Y translation displacement, node 25, m
        192   -3.261E+01                                 F               0         Blade 1 Z translation displacement, node 25, m
        193    1.067E+01                                 F               0         Blade 1 X translation displacement, node 26, m
        194   -8.794E+01                                 F               0         Blade 1 Y translation displacement, node 26, m
        195   -3.376E+01                                 F               0         Blade 1 Z translation displacement, node 26, m
        196    1.064E+01                                 F               0         Blade 1 X translation displacement, node 27, m
        197   -9.068E+01                                 F               0         Blade 1 Y translation displacement, node 27, m
        198   -3.490E+01                                 F               0         Blade 1 Z translation displacement, node 27, m
        199    1.062E+01                                 F               0         Blade 1 X translation displacement, node 28, m
        200   -9.300E+01                                 F               0         Blade 1 Y translation displacement, node 28, m
        201   -3.588E+01                                 F               0         Blade 1 Z translation displacement, node 28, m
        202    8.295E-01, -3.293E-01, -4.511E-01         F               0         Blade 1 X orientation angle, node 1, rad
        203    5.498E-01,  6.234E-01,  5.560E-01         F               0         Blade 1 Y orientation angle, node 1, rad
        204    9.811E-02, -7.092E-01,  6.982E-01         F               0         Blade 1 Z orientation angle, node 1, rad
        205    8.295E-01, -3.293E-01, -4.511E-01         F               0         Blade 1 X orientation angle, node 2, rad
        206    5.498E-01,  6.234E-01,  5.560E-01         F               0         Blade 1 Y orientation angle, node 2, rad
        207    9.811E-02, -7.092E-01,  6.982E-01         F               0         Blade 1 Z orientation angle, node 2, rad
        208    9.362E-01, -1.722E-01, -3.064E-01         F               0         Blade 1 X orientation angle, node 3, rad
        209    3.375E-01,  6.837E-01,  6.470E-01         F               0         Blade 1 Y orientation angle, node 3, rad
        210    9.811E-02, -7.092E-01,  6.982E-01         F               0         Blade 1 Z orientation angle, node 3, rad
        211    9.496E-01, -1.431E-01, -2.788E-01         F               0         Blade 1 X orientation angle, node 4, rad
        212    2.977E-01,  6.903E-01,  6.594E-01         F               0         Blade 1 Y orientation angle, node 4, rad
        213    9.811E-02, -7.092E-01,  6.982E-01         F               0         Blade 1 Z orientation angle, node 4, rad
        214    9.590E-01, -1.202E-01, -2.568E-01         F               0         Blade 1 X orientation angle, node 5, rad
        215    2.660E-01,  6.947E-01,  6.683E-01         F               0         Blade 1 Y orientation angle, node 5, rad
        216    9.811E-02, -7.092E-01,  6.982E-01         F               0         Blade 1 Z orientation angle, node 5, rad
        217    9.657E-01, -1.017E-01, -2.390E-01         F               0         Blade 1 X orientation angle, node 6, rad
        218    2.405E-01,  6.977E-01,  6.749E-01         F               0         Blade 1 Y orientation angle, node 6, rad
        219    9.811E-02, -7.092E-01,  6.982E-01         F               0         Blade 1 Z orientation angle, node 6, rad
        220    9.707E-01, -8.646E-02, -2.242E-01         F               0         Blade 1 X orientation angle, node 7, rad
        221    2.194E-01,  6.997E-01,  6.799E-01         F               0         Blade 1 Y orientation angle, node 7, rad
        222    9.811E-02, -7.092E-01,  6.982E-01         F               0         Blade 1 Z orientation angle, node 7, rad
        223    9.745E-01, -7.374E-02, -2.118E-01         F               0         Blade 1 X orientation angle, node 8, rad
        224    2.017E-01,  7.012E-01,  6.839E-01         F               0         Blade 1 Y orientation angle, node 8, rad
        225    9.811E-02, -7.092E-01,  6.982E-01         F               0         Blade 1 Z orientation angle, node 8, rad
        226    9.775E-01, -6.296E-02, -2.013E-01         F               0         Blade 1 X orientation angle, node 9, rad
        227    1.867E-01,  7.022E-01,  6.870E-01         F               0         Blade 1 Y orientation angle, node 9, rad