
Linearized model: Predictions were generated on 31-Jan-2024 at 12:35:17 using OpenFAST, compiled as a 64-bit application using single precision at commit v3.5.1
 linked with  NWTC Subroutine Library; ElastoDyn; InflowWind; AeroDyn; ServoDyn; HydroDyn; MAP++ (<1.20.10>, <Oct-20-2023>)

Description from the FAST input file: CCT-9 Campign 4 model. Input files to be run with OpenFAST 3.5.0. GitHub branch from Lu Wang (https://github.com/luwang00/openfast/tree/dev) compiled on March 7, 2023.

Simulation information:
   Simulation time:                   507.1750 s
   Rotor Speed:                         0.8936 rad/s
   Azimuth:                             0.8756 rad
   Wind Speed:                         10.0000 m/s
   Number of continuous states:         0
   Number of discrete states:           0
   Number of constraint states:         0
   Number of inputs:                 1746
   Number of outputs:                   4
   Jacobians included in this file?    No

Order of inputs:
     Column   Operating Point                     Rotating Frame? Derivative Order Description
   ---------- ---------------                     --------------- ---------------- -----------
          1    8.507E+00                                 F               0         Tower X translation displacement, node 1, m
          2   -1.355E+00                                 F               0         Tower Y translation displacement, node 1, m
          3   -1.095E-01                                 F               0         Tower Z translation displacement, node 1, m
          4    8.744E+00                                 F               0         Tower X translation displacement, node 2, m
          5   -1.887E+00                                 F               0         Tower Y translation displacement, node 2, m
          6   -1.232E-01                                 F               0         Tower Z translation displacement, node 2, m
          7    8.994E+00                                 F               0         Tower X translation displacement, node 3, m
          8   -2.420E+00                                 F               0         Tower Y translation displacement, node 3, m
          9   -1.372E-01                                 F               0         Tower Z translation displacement, node 3, m
         10    9.253E+00                                 F               0         Tower X translation displacement, node 4, m
         11   -2.952E+00                                 F               0         Tower Y translation displacement, node 4, m
         12   -1.515E-01                                 F               0         Tower Z translation displacement, node 4, m
         13    9.521E+00                                 F               0         Tower X translation displacement, node 5, m
         14   -3.485E+00                                 F               0         Tower Y translation displacement, node 5, m
         15   -1.658E-01                                 F               0         Tower Z translation displacement, node 5, m
         16    9.795E+00                                 F               0         Tower X translation displacement, node 6, m
         17   -4.017E+00                                 F               0         Tower Y translation displacement, node 6, m
         18   -1.804E-01                                 F               0         Tower Z translation displacement, node 6, m
         19    1.007E+01                                 F               0         Tower X translation displacement, node 7, m
         20   -4.549E+00                                 F               0         Tower Y translation displacement, node 7, m
         21   -1.949E-01                                 F               0         Tower Z translation displacement, node 7, m
         22    1.035E+01                                 F               0         Tower X translation displacement, node 8, m
         23   -5.082E+00                                 F               0         Tower Y translation displacement, node 8, m
         24   -2.096E-01                                 F               0         Tower Z translation displacement, node 8, m
         25    1.064E+01                                 F               0         Tower X translation displacement, node 9, m
         26   -5.614E+00                                 F               0         Tower Y translation displacement, node 9, m
         27   -2.243E-01                                 F               0         Tower Z translation displacement, node 9, m
         28    1.092E+01                                 F               0         Tower X translation displacement, node 10, m
         29   -6.146E+00                                 F               0         Tower Y translation displacement, node 10, m
         30   -2.391E-01                                 F               0         Tower Z translation displacement, node 10, m
         31    1.121E+01                                 F               0         Tower X translation displacement, node 11, m
         32   -6.679E+00                                 F               0         Tower Y translation displacement, node 11, m
         33   -2.539E-01                                 F               0         Tower Z translation displacement, node 11, m
         34    9.998E-01,  7.494E-03, -1.841E-02         F               0         Tower X orientation angle, node 1, rad
         35   -6.692E-03,  9.990E-01,  4.325E-02         F               0         Tower Y orientation angle, node 1, rad
         36    1.872E-02, -4.312E-02,  9.989E-01         F               0         Tower Z orientation angle, node 1, rad
         37    9.998E-01,  7.538E-03, -1.943E-02         F               0         Tower X orientation angle, node 2, rad
         38   -6.692E-03,  9.990E-01,  4.325E-02         F               0         Tower Y orientation angle, node 2, rad
         39    1.974E-02, -4.311E-02,  9.989E-01         F               0         Tower Z orientation angle, node 2, rad
         40    9.998E-01,  7.576E-03, -2.031E-02         F               0         Tower X orientation angle, node 3, rad
         41   -6.692E-03,  9.990E-01,  4.325E-02         F               0         Tower Y orientation angle, node 3, rad
         42    2.062E-02, -4.310E-02,  9.989E-01         F               0         Tower Z orientation angle, node 3, rad
         43    9.998E-01,  7.607E-03, -2.103E-02         F               0         Tower X orientation angle, node 4, rad
         44   -6.692E-03,  9.990E-01,  4.325E-02         F               0         Tower Y orientation angle, node 4, rad
         45    2.133E-02, -4.310E-02,  9.988E-01         F               0         Tower Z orientation angle, node 4, rad
         46    9.997E-01,  7.631E-03, -2.160E-02         F               0         Tower X orientation angle, node 5, rad
         47   -6.692E-03,  9.990E-01,  4.325E-02         F               0         Tower Y orientation angle, node 5, rad
         48    2.190E-02, -4.309E-02,  9.988E-01         F               0         Tower Z orientation angle, node 5, rad
         49    9.997E-01,  7.650E-03, -2.203E-02         F               0         Tower X orientation angle, node 6, rad
         50   -6.692E-03,  9.990E-01,  4.325E-02         F               0         Tower Y orientation angle, node 6, rad
         51    2.234E-02, -4.309E-02,  9.988E-01         F               0         Tower Z orientation angle, node 6, rad
         52    9.997E-01,  7.663E-03, -2.233E-02         F               0         Tower X orientation angle, node 7, rad
         53   -6.692E-03,  9.990E-01,  4.325E-02         F               0         Tower Y orientation angle, node 7, rad
         54    2.264E-02, -4.309E-02,  9.988E-01         F               0         Tower Z orientation angle, node 7, rad
         55    9.997E-01,  7.672E-03, -2.254E-02         F               0         Tower X orientation angle, node 8, rad
         56   -6.692E-03,  9.990E-01,  4.325E-02         F               0         Tower Y orientation angle, node 8, rad
         57    2.285E-02, -4.308E-02,  9.988E-01         F               0         Tower Z orientation angle, node 8, rad
         58    9.997E-01,  7.678E-03, -2.267E-02         F               0         Tower X orientation angle, node 9, rad
         59   -6.692E-03,  9.990E-01,  4.325E-02         F               0         Tower Y orientation angle, node 9, rad
         60    2.298E-02, -4.308E-02,  9.988E-01         F               0         Tower Z orientation angle, node 9, rad
         61    9.997E-01,  7.681E-03, -2.274E-02         F               0         Tower X orientation angle, node 10, rad
         62   -6.692E-03,  9.990E-01,  4.325E-02         F               0         Tower Y orientation angle, node 10, rad
         63    2.305E-02, -4.308E-02,  9.988E-01         F               0         Tower Z orientation angle, node 10, rad
         64    9.997E-01,  7.682E-03, -2.277E-02         F               0         Tower X orientation angle, node 11, rad
         65   -6.692E-03,  9.990E-01,  4.325E-02         F               0         Tower Y orientation angle, node 11, rad
         66    2.308E-02, -4.308E-02,  9.988E-01         F               0         Tower Z orientation angle, node 11, rad
         67   -2.605E-03                                 F               0         Tower X translation velocity, node 1, m/s
         68   -8.009E-07                                 F               0         Tower Y translation velocity, node 1, m/s
         69   -6.937E-03                                 F               0         Tower Z translation velocity, node 1, m/s
         70   -2.604E-03                                 F               0         Tower X translation velocity, node 2, m/s
         71   -1.337E-06                                 F               0         Tower Y translation velocity, node 2, m/s
         72   -6.937E-03                                 F               0         Tower Z translation velocity, node 2, m/s
         73   -2.597E-03                                 F               0         Tower X translation velocity, node 3, m/s
         74   -1.857E-06                                 F               0         Tower Y translation velocity, node 3, m/s
         75   -6.937E-03                                 F               0         Tower Z translation velocity, node 3, m/s
         76   -2.584E-03                                 F               0         Tower X translation velocity, node 4, m/s
         77   -2.354E-06                                 F               0         Tower Y translation velocity, node 4, m/s
         78   -6.937E-03                                 F               0         Tower Z translation velocity, node 4, m/s
         79   -2.564E-03                                 F               0         Tower X translation velocity, node 5, m/s
         80   -2.819E-06                                 F               0         Tower Y translation velocity, node 5, m/s
         81   -6.938E-03                                 F               0         Tower Z translation velocity, node 5, m/s
         82   -2.538E-03                                 F               0         Tower X translation velocity, node 6, m/s
         83   -3.247E-06                                 F               0         Tower Y translation velocity, node 6, m/s
         84   -6.938E-03                                 F               0         Tower Z translation velocity, node 6, m/s
         85   -2.506E-03                                 F               0         Tower X translation velocity, node 7, m/s
         86   -3.639E-06                                 F               0         Tower Y translation velocity, node 7, m/s
         87   -6.939E-03                                 F               0         Tower Z translation velocity, node 7, m/s
         88   -2.467E-03                                 F               0         Tower X translation velocity, node 8, m/s
         89   -3.992E-06                                 F               0         Tower Y translation velocity, node 8, m/s
         90   -6.940E-03                                 F               0         Tower Z translation velocity, node 8, m/s
         91   -2.424E-03                                 F               0         Tower X translation velocity, node 9, m/s
         92   -4.308E-06                                 F               0         Tower Y translation velocity, node 9, m/s
         93   -6.941E-03                                 F               0         Tower Z translation velocity, node 9, m/s
         94   -2.376E-03                                 F               0         Tower X translation velocity, node 10, m/s
         95   -4.595E-06                                 F               0         Tower Y translation velocity, node 10, m/s
         96   -6.942E-03                                 F               0         Tower Z translation velocity, node 10, m/s
         97   -2.325E-03                                 F               0         Tower X translation velocity, node 11, m/s
         98   -4.861E-06                                 F               0         Tower Y translation velocity, node 11, m/s
         99   -6.943E-03                                 F               0         Tower Z translation velocity, node 11, m/s
        100    1.139E+01                                 F               0         Hub X translation displacement, node 1, m
        101   -7.100E+00                                 F               0         Hub Y translation displacement, node 1, m
        102   -1.731E-02                                 F               0         Hub Z translation displacement, node 1, m
        103    9.918E-01,  1.214E-02, -1.270E-01         F               0         Hub X orientation angle, node 1, rad
        104    9.359E-02,  6.076E-01,  7.887E-01         F               0         Hub Y orientation angle, node 1, rad
        105    8.678E-02, -7.941E-01,  6.015E-01         F               0         Hub Z orientation angle, node 1, rad
        106    8.863E-01                                 F               0         Hub X rotation velocity, node 1, rad/s
        107    1.086E-02                                 F               0         Hub Y rotation velocity, node 1, rad/s
        108   -1.135E-01                                 F               0         Hub Z rotation velocity, node 1, rad/s
        109    9.886E-01, -5.888E-03, -1.504E-01         F               0         Blade root 1 X orientation angle, node 1, rad
        110    1.230E-01,  6.077E-01,  7.846E-01         F               0         Blade root 1 Y orientation angle, node 1, rad
        111    8.678E-02, -7.941E-01,  6.015E-01         F               0         Blade root 1 Z orientation angle, node 1, rad
        112    9.905E-01,  4.155E-02, -1.307E-01         F               0         Blade root 2 X orientation angle, node 1, rad
        113    5.777E-02, -9.908E-01,  1.228E-01         F               0         Blade root 2 Y orientation angle, node 1, rad
        114   -1.244E-01, -1.291E-01, -9.838E-01         F               0         Blade root 2 Z orientation angle, node 1, rad
        115    9.950E-01,  7.482E-04, -9.984E-02         F               0         Blade root 3 X orientation angle, node 1, rad
        116   -9.247E-02,  3.841E-01, -9.186E-01         F               0         Blade root 3 Y orientation angle, node 1, rad
        117    3.766E-02,  9.233E-01,  3.823E-01         F               0         Blade root 3 Z orientation angle, node 1, rad
        118    1.129E+01                                 F               0         Blade 1 X translation displacement, node 1, m
        119   -1.150E+01                                 F               0         Blade 1 Y translation displacement, node 1, m
        120   -2.195E+00                                 F               0         Blade 1 Z translation displacement, node 1, m
        121    1.127E+01                                 F               0         Blade 1 X translation displacement, node 2, m
        122   -1.256E+01                                 F               0         Blade 1 Y translation displacement, node 2, m
        123   -2.719E+00                                 F               0         Blade 1 Z translation displacement, node 2, m
        124    1.095E+01                                 F               0         Blade 1 X translation displacement, node 3, m
        125   -2.697E+01                                 F               0         Blade 1 Y translation displacement, node 3, m
        126   -9.853E+00                                 F               0         Blade 1 Z translation displacement, node 3, m
        127    1.088E+01                                 F               0         Blade 1 X translation displacement, node 4, m
        128   -3.005E+01                                 F               0         Blade 1 Y translation displacement, node 4, m
        129   -1.137E+01                                 F               0         Blade 1 Z translation displacement, node 4, m
        130    1.081E+01                                 F               0         Blade 1 X translation displacement, node 5, m
        131   -3.312E+01                                 F               0         Blade 1 Y translation displacement, node 5, m
        132   -1.289E+01                                 F               0         Blade 1 Z translation displacement, node 5, m
        133    1.074E+01                                 F               0         Blade 1 X translation displacement, node 6, m
        134   -3.619E+01                                 F               0         Blade 1 Y translation displacement, node 6, m
        135   -1.441E+01                                 F               0         Blade 1 Z translation displacement, node 6, m
        136    1.067E+01                                 F               0         Blade 1 X translation displacement, node 7, m
        137   -3.926E+01                                 F               0         Blade 1 Y translation displacement, node 7, m
        138   -1.593E+01                                 F               0         Blade 1 Z translation displacement, node 7, m
        139    1.060E+01                                 F               0         Blade 1 X translation displacement, node 8, m
        140   -4.233E+01                                 F               0         Blade 1 Y translation displacement, node 8, m
        141   -1.745E+01                                 F               0         Blade 1 Z translation displacement, node 8, m
        142    1.053E+01                                 F               0         Blade 1 X translation displacement, node 9, m
        143   -4.540E+01                                 F               0         Blade 1 Y translation displacement, node 9, m
        144   -1.897E+01                                 F               0         Blade 1 Z translation displacement, node 9, m
        145    1.047E+01                                 F               0         Blade 1 X translation displacement, node 10, m
        146   -4.848E+01                                 F               0         Blade 1 Y translation displacement, node 10, m
        147   -2.049E+01                                 F               0         Blade 1 Z translation displacement, node 10, m
        148    1.040E+01                                 F               0         Blade 1 X translation displacement, node 11, m
        149   -5.155E+01                                 F               0         Blade 1 Y translation displacement, node 11, m
        150   -2.201E+01                                 F               0         Blade 1 Z translation displacement, node 11, m
        151    1.033E+01                                 F               0         Blade 1 X translation displacement, node 12, m
        152   -5.462E+01                                 F               0         Blade 1 Y translation displacement, node 12, m
        153   -2.353E+01                                 F               0         Blade 1 Z translation displacement, node 12, m
        154    1.026E+01                                 F               0         Blade 1 X translation displacement, node 13, m
        155   -5.769E+01                                 F               0         Blade 1 Y translation displacement, node 13, m
        156   -2.505E+01                                 F               0         Blade 1 Z translation displacement, node 13, m
        157    1.019E+01                                 F               0         Blade 1 X translation displacement, node 14, m
        158   -6.076E+01                                 F               0         Blade 1 Y translation displacement, node 14, m
        159   -2.657E+01                                 F               0         Blade 1 Z translation displacement, node 14, m
        160    1.012E+01                                 F               0         Blade 1 X translation displacement, node 15, m
        161   -6.383E+01                                 F               0         Blade 1 Y translation displacement, node 15, m
        162   -2.809E+01                                 F               0         Blade 1 Z translation displacement, node 15, m
        163    1.005E+01                                 F               0         Blade 1 X translation displacement, node 16, m
        164   -6.690E+01                                 F               0         Blade 1 Y translation displacement, node 16, m
        165   -2.961E+01                                 F               0         Blade 1 Z translation displacement, node 16, m
        166    9.985E+00                                 F               0         Blade 1 X translation displacement, node 17, m
        167   -6.998E+01                                 F               0         Blade 1 Y translation displacement, node 17, m
        168   -3.113E+01                                 F               0         Blade 1 Z translation displacement, node 17, m
        169    9.917E+00                                 F               0         Blade 1 X translation displacement, node 18, m
        170   -7.305E+01                                 F               0         Blade 1 Y translation displacement, node 18, m
        171   -3.265E+01                                 F               0         Blade 1 Z translation displacement, node 18, m
        172    9.848E+00                                 F               0         Blade 1 X translation displacement, node 19, m
        173   -7.612E+01                                 F               0         Blade 1 Y translation displacement, node 19, m
        174   -3.417E+01                                 F               0         Blade 1 Z translation displacement, node 19, m
        175    9.779E+00                                 F               0         Blade 1 X translation displacement, node 20, m
        176   -7.919E+01                                 F               0         Blade 1 Y translation displacement, node 20, m
        177   -3.569E+01                                 F               0         Blade 1 Z translation displacement, node 20, m
        178    9.711E+00                                 F               0         Blade 1 X translation displacement, node 21, m
        179   -8.226E+01                                 F               0         Blade 1 Y translation displacement, node 21, m
        180   -3.721E+01                                 F               0         Blade 1 Z translation displacement, node 21, m
        181    9.642E+00                                 F               0         Blade 1 X translation displacement, node 22, m
        182   -8.533E+01                                 F               0         Blade 1 Y translation displacement, node 22, m
        183   -3.873E+01                                 F               0         Blade 1 Z translation displacement, node 22, m
        184    9.573E+00                                 F               0         Blade 1 X translation displacement, node 23, m
        185   -8.840E+01                                 F               0         Blade 1 Y translation displacement, node 23, m
        186   -4.025E+01                                 F               0         Blade 1 Z translation displacement, node 23, m
        187    9.505E+00                                 F               0         Blade 1 X translation displacement, node 24, m
        188   -9.148E+01                                 F               0         Blade 1 Y translation displacement, node 24, m
        189   -4.177E+01                                 F               0         Blade 1 Z translation displacement, node 24, m
        190    9.436E+00                                 F               0         Blade 1 X translation displacement, node 25, m
        191   -9.455E+01                                 F               0         Blade 1 Y translation displacement, node 25, m
        192   -4.329E+01                                 F               0         Blade 1 Z translation displacement, node 25, m
        193    9.367E+00                                 F               0         Blade 1 X translation displacement, node 26, m
        194   -9.762E+01                                 F               0         Blade 1 Y translation displacement, node 26, m
        195   -4.481E+01                                 F               0         Blade 1 Z translation displacement, node 26, m
        196    9.299E+00                                 F               0         Blade 1 X translation displacement, node 27, m
        197   -1.007E+02                                 F               0         Blade 1 Y translation displacement, node 27, m
        198   -4.633E+01                                 F               0         Blade 1 Z translation displacement, node 27, m
        199    9.241E+00                                 F               0         Blade 1 X translation displacement, node 28, m
        200   -1.033E+02                                 F               0         Blade 1 Y translation displacement, node 28, m
        201   -4.762E+01                                 F               0         Blade 1 Z translation displacement, node 28, m
        202    8.238E-01, -2.824E-01, -4.916E-01         F               0         Blade 1 X orientation angle, node 1, rad
        203    5.603E-01,  5.382E-01,  6.297E-01         F               0         Blade 1 Y orientation angle, node 1, rad
        204    8.678E-02, -7.941E-01,  6.015E-01         F               0         Blade 1 Z orientation angle, node 1, rad
        205    8.238E-01, -2.824E-01, -4.916E-01         F               0         Blade 1 X orientation angle, node 2, rad
        206    5.603E-01,  5.382E-01,  6.297E-01         F               0         Blade 1 Y orientation angle, node 2, rad
        207    8.678E-02, -7.941E-01,  6.015E-01         F               0         Blade 1 Z orientation angle, node 2, rad
        208    9.331E-01, -1.468E-01, -3.284E-01         F               0         Blade 1 X orientation angle, node 3, rad
        209    3.491E-01,  5.898E-01,  7.283E-01         F               0         Blade 1 Y orientation angle, node 3, rad
        210    8.678E-02, -7.941E-01,  6.015E-01         F               0         Blade 1 Z orientation angle, node 3, rad
        211    9.470E-01, -1.217E-01, -2.973E-01         F               0         Blade 1 X orientation angle, node 4, rad
        212    3.093E-01,  5.954E-01,  7.415E-01         F               0         Blade 1 Y orientation angle, node 4, rad
        213    8.678E-02, -7.941E-01,  6.015E-01         F               0         Blade 1 Z orientation angle, node 4, rad
        214    9.567E-01, -1.019E-01, -2.726E-01         F               0         Blade 1 X orientation angle, node 5, rad
        215    2.778E-01,  5.991E-01,  7.509E-01         F               0         Blade 1 Y orientation angle, node 5, rad
        216    8.678E-02, -7.941E-01,  6.015E-01         F               0         Blade 1 Z orientation angle, node 5, rad
        217    9.637E-01, -8.600E-02, -2.526E-01         F               0         Blade 1 X orientation angle, node 6, rad
        218    2.523E-01,  6.016E-01,  7.579E-01         F               0         Blade 1 Y orientation angle, node 6, rad
        219    8.678E-02, -7.941E-01,  6.015E-01         F               0         Blade 1 Z orientation angle, node 6, rad
        220    9.690E-01, -7.286E-02, -2.360E-01         F               0         Blade 1 X orientation angle, node 7, rad
        221    2.312E-01,  6.034E-01,  7.632E-01         F               0         Blade 1 Y orientation angle, node 7, rad
        222    8.678E-02, -7.941E-01,  6.015E-01         F               0         Blade 1 Z orientation angle, node 7, rad
        223    9.731E-01, -6.189E-02, -2.221E-01         F               0         Blade 1 X orientation angle, node 8, rad
        224    2.136E-01,  6.046E-01,  7.674E-01         F               0         Blade 1 Y orientation angle, node 8, rad
        225    8.678E-02, -7.941E-01,  6.015E-01         F               0         Blade 1 Z orientation angle, node 8, rad
        226    9.762E-01, -5.260E-02, -2.103E-01         F               0         Blade 1 X orientation angle, node 9, rad
        227    1.986E-01,  6.055E-01,  7.707E-01         F               0         Blade 1 Y orientation angle, node 9, rad