
Linearized model: Predictions were generated on 13-Feb-2024 at 11:29:37 using OpenFAST, compiled as a 64-bit application using single precision at commit v3.5.1
 linked with  NWTC Subroutine Library; ElastoDyn; InflowWind; AeroDyn; ServoDyn; HydroDyn; MAP++ (<1.20.10>, <Oct-20-2023>)

Description from the FAST input file: CCT-9 Campign 4 model. Input files to be run with OpenFAST 3.5.0. GitHub branch from Lu Wang (https://github.com/luwang00/openfast/tree/dev) compiled on March 7, 2023.

Simulation information:
   Simulation time:                  1214.5750 s
   Rotor Speed:                         0.7917 rad/s
   Azimuth:                             2.9685 rad
   Wind Speed:                         16.0000 m/s
   Number of continuous states:        14
   Number of discrete states:           0
   Number of constraint states:         0
   Number of inputs:                 1890
   Number of outputs:                  25
   Jacobians included in this file?    No

Order of continuous states:
   Row/Column Operating Point                                                   Rotating Frame? Derivative Order Description
   ---------- ---------------                                                   --------------- ---------------- -----------
          1     8.64557361603E+000                                                     F               2         Platform horizontal surge translation DOF (internal DOF index = DOF_Sg), m
          2    -6.18421554565E-001                                                     F               2         Platform horizontal sway translation DOF (internal DOF index = DOF_Sw), m
          3    -1.33888363838E-001                                                     F               2         Platform vertical heave translation DOF (internal DOF index = DOF_Hv), m
          4     5.16661293805E-002                                                     F               2         Platform roll tilt rotation DOF (internal DOF index = DOF_R), rad
          5     1.13041214645E-001                                                     F               2         Platform pitch tilt rotation DOF (internal DOF index = DOF_P), rad
          6     5.23926340975E-004                                                     F               2         Platform yaw rotation DOF (internal DOF index = DOF_Y), rad
          7     1.39773643017E+000                                                     F               2         Variable speed generator DOF (internal DOF index = DOF_GeAz), rad
          8     3.91270223190E-005                                                     F               2         First time derivative of Platform horizontal surge translation DOF (internal DOF index = DOF_Sg), m/s
          9    -1.28522995510E-004                                                     F               2         First time derivative of Platform horizontal sway translation DOF (internal DOF index = DOF_Sw), m/s
         10    -4.39394870773E-003                                                     F               2         First time derivative of Platform vertical heave translation DOF (internal DOF index = DOF_Hv), m/s
         11     2.64874142886E-005                                                     F               2         First time derivative of Platform roll tilt rotation DOF (internal DOF index = DOF_R), rad/s
         12     2.32696015701E-006                                                     F               2         First time derivative of Platform pitch tilt rotation DOF (internal DOF index = DOF_P), rad/s
         13     6.86063094690E-006                                                     F               2         First time derivative of Platform yaw rotation DOF (internal DOF index = DOF_Y), rad/s
         14     7.91708052158E-001                                                     F               2         First time derivative of Variable speed generator DOF (internal DOF index = DOF_GeAz), rad/s

Order of continuous state derivatives:
   Row/Column Operating Point                                                   Rotating Frame? Derivative Order Description
   ---------- ---------------                                                   --------------- ---------------- -----------
          1     3.91270223190E-005                                                     F               2         First time derivative of Platform horizontal surge translation DOF (internal DOF index = DOF_Sg), m/s
          2    -1.28522995510E-004                                                     F               2         First time derivative of Platform horizontal sway translation DOF (internal DOF index = DOF_Sw), m/s
          3    -4.39394870773E-003                                                     F               2         First time derivative of Platform vertical heave translation DOF (internal DOF index = DOF_Hv), m/s
          4     2.64874142886E-005                                                     F               2         First time derivative of Platform roll tilt rotation DOF (internal DOF index = DOF_R), rad/s
          5     2.32696015701E-006                                                     F               2         First time derivative of Platform pitch tilt rotation DOF (internal DOF index = DOF_P), rad/s
          6     6.86063094690E-006                                                     F               2         First time derivative of Platform yaw rotation DOF (internal DOF index = DOF_Y), rad/s
          7     7.91708052158E-001                                                     F               2         First time derivative of Variable speed generator DOF (internal DOF index = DOF_GeAz), rad/s
          8    -4.22223878559E-004                                                     F               2         First time derivative of First time derivative of Platform horizontal surge translation DOF (internal DOF index = DOF_Sg), m/s/s
          9    -5.69865951547E-005                                                     F               2         First time derivative of First time derivative of Platform horizontal sway translation DOF (internal DOF index = DOF_Sw), m/s/s
         10    -1.91109231673E-003                                                     F               2         First time derivative of First time derivative of Platform vertical heave translation DOF (internal DOF index = DOF_Hv), m/s/s
         11     1.24352509374E-005                                                     F               2         First time derivative of First time derivative of Platform roll tilt rotation DOF (internal DOF index = DOF_R), rad/s/s
         12    -3.01686995954E-005                                                     F               2         First time derivative of First time derivative of Platform pitch tilt rotation DOF (internal DOF index = DOF_P), rad/s/s
         13     2.62998469225E-006                                                     F               2         First time derivative of First time derivative of Platform yaw rotation DOF (internal DOF index = DOF_Y), rad/s/s
         14    -1.54166278662E-004                                                     F               2         First time derivative of First time derivative of Variable speed generator DOF (internal DOF index = DOF_GeAz), rad/s/s

Order of inputs:
     Column   Operating Point                                                   Rotating Frame? Derivative Order Description
   ---------- ---------------                                                   --------------- ---------------- -----------
          1     1.69735519409E+002                                                     F               0         Blade 1 X force, node 1, N
          2    -9.79424438477E+001                                                     F               0         Blade 1 Y force, node 1, N
          3    -2.48907375336E+001                                                     F               0         Blade 1 Z force, node 1, N
          4     7.12243591309E+002                                                     F               0         Blade 1 X force, node 2, N
          5    -1.56867721558E+002                                                     F               0         Blade 1 Y force, node 2, N
          6    -1.36456710815E+002                                                     F               0         Blade 1 Z force, node 2, N
          7     9.10661682129E+002                                                     F               0         Blade 1 X force, node 3, N
          8     4.88685340881E+001                                                     F               0         Blade 1 Y force, node 3, N
          9    -2.05891647339E+002                                                     F               0         Blade 1 Z force, node 3, N
         10     1.18475231934E+003                                                     F               0         Blade 1 X force, node 4, N
         11     2.37440765381E+002                                                     F               0         Blade 1 Y force, node 4, N
         12    -2.89761810303E+002                                                     F               0         Blade 1 Z force, node 4, N
         13     1.45885388184E+003                                                     F               0         Blade 1 X force, node 5, N
         14     4.26016723633E+002                                                     F               0         Blade 1 Y force, node 5, N
         15    -3.73634857178E+002                                                     F               0         Blade 1 Z force, node 5, N
         16     1.73294750977E+003                                                     F               0         Blade 1 X force, node 6, N
         17     6.14591003418E+002                                                     F               0         Blade 1 Y force, node 6, N
         18    -4.57505889893E+002                                                     F               0         Blade 1 Z force, node 6, N
         19     2.00702758789E+003                                                     F               0         Blade 1 X force, node 7, N
         20     8.03159912109E+002                                                     F               0         Blade 1 Y force, node 7, N
         21    -5.41373352051E+002                                                     F               0         Blade 1 Z force, node 7, N
         22     2.28111816406E+003                                                     F               0         Blade 1 X force, node 8, N
         23     9.91732177734E+002                                                     F               0         Blade 1 Y force, node 8, N
         24    -6.25243469238E+002                                                     F               0         Blade 1 Z force, node 8, N
         25     2.55520898438E+003                                                     F               0         Blade 1 X force, node 9, N
         26     1.18030444336E+003                                                     F               0         Blade 1 Y force, node 9, N
         27    -7.09113647461E+002                                                     F               0         Blade 1 Z force, node 9, N
         28     2.82929956055E+003                                                     F               0         Blade 1 X force, node 10, N
         29     1.36887670898E+003                                                     F               0         Blade 1 Y force, node 10, N
         30    -7.92983764648E+002                                                     F               0         Blade 1 Z force, node 10, N
         31     3.10339038086E+003                                                     F               0         Blade 1 X force, node 11, N
         32     1.55744897461E+003                                                     F               0         Blade 1 Y force, node 11, N
         33    -8.76853942871E+002                                                     F               0         Blade 1 Z force, node 11, N
         34     3.37750488281E+003                                                     F               0         Blade 1 X force, node 12, N
         35     1.74603369141E+003                                                     F               0         Blade 1 Y force, node 12, N
         36    -9.60730834961E+002                                                     F               0         Blade 1 Z force, node 12, N
         37     3.65159838867E+003                                                     F               0         Blade 1 X force, node 13, N
         38     1.93460791016E+003                                                     F               0         Blade 1 Y force, node 13, N
         39    -1.04460180664E+003                                                     F               0         Blade 1 Z force, node 13, N
         40     3.92566625977E+003                                                     F               0         Blade 1 X force, node 14, N
         41     2.12316821289E+003                                                     F               0         Blade 1 Y force, node 14, N
         42    -1.12846557617E+003                                                     F               0         Blade 1 Z force, node 14, N
         43     4.19978417969E+003                                                     F               0         Blade 1 X force, node 15, N
         44     2.31175610352E+003                                                     F               0         Blade 1 Y force, node 15, N
         45    -1.21234387207E+003                                                     F               0         Blade 1 Z force, node 15, N
         46     4.47384619141E+003                                                     F               0         Blade 1 X force, node 16, N
         47     2.50031201172E+003                                                     F               0         Blade 1 Y force, node 16, N
         48    -1.29620556641E+003                                                     F               0         Blade 1 Z force, node 16, N
         49     5.50028222656E+003                                                     F               0         Blade 1 X force, node 17, N
         50     3.10739819336E+003                                                     F               0         Blade 1 Y force, node 17, N
         51    -1.59780651855E+003                                                     F               0         Blade 1 Z force, node 17, N
         52     4.15896826172E+003                                                     F               0         Blade 1 X force, node 18, N
         53     2.30268212891E+003                                                     F               0         Blade 1 Y force, node 18, N
         54    -1.20224865723E+003                                                     F               0         Blade 1 Z force, node 18, N
         55     5.04567480469E+003                                                     F               0         Blade 1 X force, node 19, N
         56     2.71247094727E+003                                                     F               0         Blade 1 Y force, node 19, N
         57    -1.44834997559E+003                                                     F               0         Blade 1 Z force, node 19, N
         58     4.25628369141E+003                                                     F               0         Blade 1 X force, node 20, N
         59     2.22347729492E+003                                                     F               0         Blade 1 Y force, node 20, N
         60    -1.21361572266E+003                                                     F               0         Blade 1 Z force, node 20, N
         61     6.20537988281E+003                                                     F               0         Blade 1 X force, node 21, N
         62     3.13564477539E+003                                                     F               0         Blade 1 Y force, node 21, N
         63    -1.75601428223E+003                                                     F               0         Blade 1 Z force, node 21, N
         64     5.40123681641E+003                                                     F               0         Blade 1 X force, node 22, N
         65     2.64096020508E+003                                                     F               0         Blade 1 Y force, node 22, N
         66    -1.51732739258E+003                                                     F               0         Blade 1 Z force, node 22, N
         67     5.47867041016E+003                                                     F               0         Blade 1 X force, node 23, N
         68     2.59870263672E+003                                                     F               0         Blade 1 Y force, node 23, N
         69    -1.52898815918E+003                                                     F               0         Blade 1 Z force, node 23, N
         70     5.65163232422E+003                                                     F               0         Blade 1 X force, node 24, N
         71     2.60137646484E+003                                                     F               0         Blade 1 Y force, node 24, N
         72    -1.56726062012E+003                                                     F               0         Blade 1 Z force, node 24, N
         73     5.71913964844E+003                                                     F               0         Blade 1 X force, node 25, N
         74     2.55705249023E+003                                                     F               0         Blade 1 Y force, node 25, N
         75    -1.57648352051E+003                                                     F               0         Blade 1 Z force, node 25, N
         76     5.81722314453E+003                                                     F               0         Blade 1 X force, node 26, N
         77     2.52743188477E+003                                                     F               0         Blade 1 Y force, node 26, N
         78    -1.59426513672E+003                                                     F               0         Blade 1 Z force, node 26, N
         79     6.88313623047E+003                                                     F               0         Blade 1 X force, node 27, N
         80     2.90172900391E+003                                                     F               0         Blade 1 Y force, node 27, N
         81    -1.87520104980E+003                                                     F               0         Blade 1 Z force, node 27, N
         82     5.03412500000E+003                                                     F               0         Blade 1 X force, node 28, N
         83     2.06275830078E+003                                                     F               0         Blade 1 Y force, node 28, N
         84    -1.36397460938E+003                                                     F               0         Blade 1 Z force, node 28, N
         85     6.08556152344E+003                                                     F               0         Blade 1 X force, node 29, N
         86     2.43521459961E+003                                                     F               0         Blade 1 Y force, node 29, N
         87    -1.64150390625E+003                                                     F               0         Blade 1 Z force, node 29, N
         88     5.11862060547E+003                                                     F               0         Blade 1 X force, node 30, N
         89     2.00057666016E+003                                                     F               0         Blade 1 Y force, node 30, N
         90    -1.37467468262E+003                                                     F               0         Blade 1 Z force, node 30, N
         91     7.29035839844E+003                                                     F               0         Blade 1 X force, node 31, N
         92     2.77243457031E+003                                                     F               0         Blade 1 Y force, node 31, N
         93    -1.94823095703E+003                                                     F               0         Blade 1 Z force, node 31, N
         94     6.29967626953E+003                                                     F               0         Blade 1 X force, node 32, N
         95     2.33177612305E+003                                                     F               0         Blade 1 Y force, node 32, N
         96    -1.67543591309E+003                                                     F               0         Blade 1 Z force, node 32, N
         97     6.35623632812E+003                                                     F               0         Blade 1 X force, node 33, N
         98     2.29344897461E+003                                                     F               0         Blade 1 Y force, node 33, N
         99    -1.68301342773E+003                                                     F               0         Blade 1 Z force, node 33, N
        100     6.41309716797E+003                                                     F               0         Blade 1 X force, node 34, N
        101     2.25593334961E+003                                                     F               0         Blade 1 Y force, node 34, N
        102    -1.69075903320E+003                                                     F               0         Blade 1 Z force, node 34, N
        103     6.46463281250E+003                                                     F               0         Blade 1 X force, node 35, N
        104     2.21931542969E+003                                                     F               0         Blade 1 Y force, node 35, N
        105    -1.69744970703E+003                                                     F               0         Blade 1 Z force, node 35, N
        106     6.51311621094E+003                                                     F               0         Blade 1 X force, node 36, N
        107     2.18233007812E+003                                                     F               0         Blade 1 Y force, node 36, N
        108    -1.70342480469E+003                                                     F               0         Blade 1 Z force, node 36, N
        109     7.66921289062E+003                                                     F               0         Blade 1 X force, node 37, N
        110     2.50381567383E+003                                                     F               0         Blade 1 Y force, node 37, N
        111    -1.99748803711E+003                                                     F               0         Blade 1 Z force, node 37, N
        112     5.48907958984E+003                                                     F               0         Blade 1 X force, node 38, N
        113     1.74822851562E+003                                                     F               0         Blade 1 Y force, node 38, N
        114    -1.42414001465E+003                                                     F               0         Blade 1 Z force, node 38, N
        115     6.62424023438E+003                                                     F               0         Blade 1 X force, node 39, N
        116     2.06637133789E+003                                                     F               0         Blade 1 Y force, node 39, N
        117    -1.71319067383E+003                                                     F               0         Blade 1 Z force, node 39, N
        118     5.56337548828E+003                                                     F               0         Blade 1 X force, node 40, N
        119     1.69912243652E+003                                                     F               0         Blade 1 Y force, node 40, N
        120    -1.43424975586E+003                                                     F               0         Blade 1 Z force, node 40, N
        121     7.76103613281E+003                                                     F               0         Blade 1 X force, node 41, N
        122     2.31262353516E+003                                                     F               0         Blade 1 Y force, node 41, N
        123    -1.99354406738E+003                                                     F               0         Blade 1 Z force, node 41, N
        124     6.68714453125E+003                                                     F               0         Blade 1 X force, node 42, N
        125     1.94483129883E+003                                                     F               0         Blade 1 Y force, node 42, N
        126    -1.71167773438E+003                                                     F               0         Blade 1 Z force, node 42, N
        127     6.70033203125E+003                                                     F               0         Blade 1 X force, node 43, N
        128     1.90397412109E+003                                                     F               0         Blade 1 Y force, node 43, N
        129    -1.70942370605E+003                                                     F               0         Blade 1 Z force, node 43, N
        130     6.74793310547E+003                                                     F               0         Blade 1 X force, node 44, N
        131     1.87319165039E+003                                                     F               0         Blade 1 Y force, node 44, N
        132    -1.71598645020E+003                                                     F               0         Blade 1 Z force, node 44, N
        133     6.68563964844E+003                                                     F               0         Blade 1 X force, node 45, N
        134     1.81459570312E+003                                                     F               0         Blade 1 Y force, node 45, N
        135    -1.69494238281E+003                                                     F               0         Blade 1 Z force, node 45, N
        136     6.72842382812E+003                                                     F               0         Blade 1 X force, node 46, N
        137     1.78557897949E+003                                                     F               0         Blade 1 Y force, node 46, N
        138    -1.70067102051E+003                                                     F               0         Blade 1 Z force, node 46, N
        139     7.90725048828E+003                                                     F               0         Blade 1 X force, node 47, N
        140     2.04762036133E+003                                                     F               0         Blade 1 Y force, node 47, N
        141    -1.99223193359E+003                                                     F               0         Blade 1 Z force, node 47, N
        142     5.55782275391E+003                                                     F               0         Blade 1 X force, node 48, N
        143     1.40558544922E+003                                                     F               0         Blade 1 Y force, node 48, N
        144    -1.39605615234E+003                                                     F               0         Blade 1 Z force, node 48, N
        145     6.71760937500E+003                                                     F               0         Blade 1 X force, node 49, N
        146     1.66532214355E+003                                                     F               0         Blade 1 Y force, node 49, N
        147    -1.68315051270E+003                                                     F               0         Blade 1 Z force, node 49, N
        148     5.64998486328E+003                                                     F               0         Blade 1 X force, node 50, N
        149     1.37196691895E+003                                                     F               0         Blade 1 Y force, node 50, N
        150    -1.41203527832E+003                                                     F               0         Blade 1 Z force, node 50, N
        151     7.74589062500E+003                                                     F               0         Blade 1 X force, node 51, N
        152     1.83598632812E+003                                                     F               0         Blade 1 Y force, node 51, N
        153    -1.93018200684E+003                                                     F               0         Blade 1 Z force, node 51, N
        154     6.67447216797E+003                                                     F               0         Blade 1 X force, node 52, N
        155     1.54470800781E+003                                                     F               0         Blade 1 Y force, node 52, N
        156    -1.65849621582E+003                                                     F               0         Blade 1 Z force, node 52, N
        157     6.65768603516E+003                                                     F               0         Blade 1 X force, node 53, N
        158     1.50570971680E+003                                                     F               0         Blade 1 Y force, node 53, N