
Linearized model: Predictions were generated on 31-Jan-2024 at 12:35:17 using OpenFAST, compiled as a 64-bit application using single precision at commit v3.5.1
 linked with  NWTC Subroutine Library; ElastoDyn; InflowWind; AeroDyn; ServoDyn; HydroDyn; MAP++ (<1.20.10>, <Oct-20-2023>)

Description from the FAST input file: CCT-9 Campign 4 model. Input files to be run with OpenFAST 3.5.0. GitHub branch from Lu Wang (https://github.com/luwang00/openfast/tree/dev) compiled on March 7, 2023.

Simulation information:
   Simulation time:                   501.0000 s
   Rotor Speed:                         0.8935 rad/s
   Azimuth:                             1.6398 rad
   Wind Speed:                         10.0000 m/s
   Number of continuous states:         0
   Number of discrete states:           0
   Number of constraint states:         0
   Number of inputs:                 1746
   Number of outputs:                   4
   Jacobians included in this file?    No

Order of inputs:
     Column   Operating Point                     Rotating Frame? Derivative Order Description
   ---------- ---------------                     --------------- ---------------- -----------
          1    8.516E+00                                 F               0         Tower X translation displacement, node 1, m
          2   -1.355E+00                                 F               0         Tower Y translation displacement, node 1, m
          3   -7.090E-02                                 F               0         Tower Z translation displacement, node 1, m
          4    8.752E+00                                 F               0         Tower X translation displacement, node 2, m
          5   -1.887E+00                                 F               0         Tower Y translation displacement, node 2, m
          6   -8.466E-02                                 F               0         Tower Z translation displacement, node 2, m
          7    9.002E+00                                 F               0         Tower X translation displacement, node 3, m
          8   -2.420E+00                                 F               0         Tower Y translation displacement, node 3, m
          9   -9.868E-02                                 F               0         Tower Z translation displacement, node 3, m
         10    9.262E+00                                 F               0         Tower X translation displacement, node 4, m
         11   -2.952E+00                                 F               0         Tower Y translation displacement, node 4, m
         12   -1.129E-01                                 F               0         Tower Z translation displacement, node 4, m
         13    9.530E+00                                 F               0         Tower X translation displacement, node 5, m
         14   -3.485E+00                                 F               0         Tower Y translation displacement, node 5, m
         15   -1.273E-01                                 F               0         Tower Z translation displacement, node 5, m
         16    9.803E+00                                 F               0         Tower X translation displacement, node 6, m
         17   -4.017E+00                                 F               0         Tower Y translation displacement, node 6, m
         18   -1.418E-01                                 F               0         Tower Z translation displacement, node 6, m
         19    1.008E+01                                 F               0         Tower X translation displacement, node 7, m
         20   -4.549E+00                                 F               0         Tower Y translation displacement, node 7, m
         21   -1.564E-01                                 F               0         Tower Z translation displacement, node 7, m
         22    1.036E+01                                 F               0         Tower X translation displacement, node 8, m
         23   -5.082E+00                                 F               0         Tower Y translation displacement, node 8, m
         24   -1.711E-01                                 F               0         Tower Z translation displacement, node 8, m
         25    1.065E+01                                 F               0         Tower X translation displacement, node 9, m
         26   -5.614E+00                                 F               0         Tower Y translation displacement, node 9, m
         27   -1.858E-01                                 F               0         Tower Z translation displacement, node 9, m
         28    1.093E+01                                 F               0         Tower X translation displacement, node 10, m
         29   -6.146E+00                                 F               0         Tower Y translation displacement, node 10, m
         30   -2.005E-01                                 F               0         Tower Z translation displacement, node 10, m
         31    1.122E+01                                 F               0         Tower X translation displacement, node 11, m
         32   -6.679E+00                                 F               0         Tower Y translation displacement, node 11, m
         33   -2.153E-01                                 F               0         Tower Z translation displacement, node 11, m
         34    9.998E-01,  7.484E-03, -1.841E-02         F               0         Tower X orientation angle, node 1, rad
         35   -6.682E-03,  9.990E-01,  4.325E-02         F               0         Tower Y orientation angle, node 1, rad
         36    1.872E-02, -4.312E-02,  9.989E-01         F               0         Tower Z orientation angle, node 1, rad
         37    9.998E-01,  7.528E-03, -1.943E-02         F               0         Tower X orientation angle, node 2, rad
         38   -6.682E-03,  9.990E-01,  4.325E-02         F               0         Tower Y orientation angle, node 2, rad
         39    1.974E-02, -4.311E-02,  9.989E-01         F               0         Tower Z orientation angle, node 2, rad
         40    9.998E-01,  7.566E-03, -2.031E-02         F               0         Tower X orientation angle, node 3, rad
         41   -6.682E-03,  9.990E-01,  4.325E-02         F               0         Tower Y orientation angle, node 3, rad
         42    2.061E-02, -4.310E-02,  9.989E-01         F               0         Tower Z orientation angle, node 3, rad
         43    9.998E-01,  7.597E-03, -2.102E-02         F               0         Tower X orientation angle, node 4, rad
         44   -6.682E-03,  9.990E-01,  4.325E-02         F               0         Tower Y orientation angle, node 4, rad
         45    2.133E-02, -4.310E-02,  9.988E-01         F               0         Tower Z orientation angle, node 4, rad
         46    9.997E-01,  7.622E-03, -2.159E-02         F               0         Tower X orientation angle, node 5, rad
         47   -6.682E-03,  9.990E-01,  4.325E-02         F               0         Tower Y orientation angle, node 5, rad
         48    2.190E-02, -4.309E-02,  9.988E-01         F               0         Tower Z orientation angle, node 5, rad
         49    9.997E-01,  7.640E-03, -2.203E-02         F               0         Tower X orientation angle, node 6, rad
         50   -6.682E-03,  9.990E-01,  4.325E-02         F               0         Tower Y orientation angle, node 6, rad
         51    2.234E-02, -4.309E-02,  9.988E-01         F               0         Tower Z orientation angle, node 6, rad
         52    9.997E-01,  7.653E-03, -2.233E-02         F               0         Tower X orientation angle, node 7, rad
         53   -6.682E-03,  9.990E-01,  4.325E-02         F               0         Tower Y orientation angle, node 7, rad
         54    2.264E-02, -4.309E-02,  9.988E-01         F               0         Tower Z orientation angle, node 7, rad
         55    9.997E-01,  7.662E-03, -2.254E-02         F               0         Tower X orientation angle, node 8, rad
         56   -6.682E-03,  9.990E-01,  4.325E-02         F               0         Tower Y orientation angle, node 8, rad
         57    2.285E-02, -4.308E-02,  9.988E-01         F               0         Tower Z orientation angle, node 8, rad
         58    9.997E-01,  7.668E-03, -2.267E-02         F               0         Tower X orientation angle, node 9, rad
         59   -6.682E-03,  9.990E-01,  4.325E-02         F               0         Tower Y orientation angle, node 9, rad
         60    2.298E-02, -4.308E-02,  9.988E-01         F               0         Tower Z orientation angle, node 9, rad
         61    9.997E-01,  7.671E-03, -2.274E-02         F               0         Tower X orientation angle, node 10, rad
         62   -6.682E-03,  9.990E-01,  4.325E-02         F               0         Tower Y orientation angle, node 10, rad
         63    2.305E-02, -4.308E-02,  9.988E-01         F               0         Tower Z orientation angle, node 10, rad
         64    9.997E-01,  7.672E-03, -2.277E-02         F               0         Tower X orientation angle, node 11, rad
         65   -6.682E-03,  9.990E-01,  4.325E-02         F               0         Tower Y orientation angle, node 11, rad
         66    2.308E-02, -4.308E-02,  9.988E-01         F               0         Tower Z orientation angle, node 11, rad
         67   -1.681E-04                                 F               0         Tower X translation velocity, node 1, m/s
         68   -5.062E-07                                 F               0         Tower Y translation velocity, node 1, m/s
         69   -1.257E-03                                 F               0         Tower Z translation velocity, node 1, m/s
         70   -1.717E-04                                 F               0         Tower X translation velocity, node 2, m/s
         71   -8.768E-07                                 F               0         Tower Y translation velocity, node 2, m/s
         72   -1.257E-03                                 F               0         Tower Z translation velocity, node 2, m/s
         73   -1.832E-04                                 F               0         Tower X translation velocity, node 3, m/s
         74   -1.326E-06                                 F               0         Tower Y translation velocity, node 3, m/s
         75   -1.257E-03                                 F               0         Tower Z translation velocity, node 3, m/s
         76   -2.015E-04                                 F               0         Tower X translation velocity, node 4, m/s
         77   -1.842E-06                                 F               0         Tower Y translation velocity, node 4, m/s
         78   -1.256E-03                                 F               0         Tower Z translation velocity, node 4, m/s
         79   -2.265E-04                                 F               0         Tower X translation velocity, node 5, m/s
         80   -2.421E-06                                 F               0         Tower Y translation velocity, node 5, m/s
         81   -1.256E-03                                 F               0         Tower Z translation velocity, node 5, m/s
         82   -2.577E-04                                 F               0         Tower X translation velocity, node 6, m/s
         83   -3.057E-06                                 F               0         Tower Y translation velocity, node 6, m/s
         84   -1.255E-03                                 F               0         Tower Z translation velocity, node 6, m/s
         85   -2.943E-04                                 F               0         Tower X translation velocity, node 7, m/s
         86   -3.740E-06                                 F               0         Tower Y translation velocity, node 7, m/s
         87   -1.254E-03                                 F               0         Tower Z translation velocity, node 7, m/s
         88   -3.360E-04                                 F               0         Tower X translation velocity, node 8, m/s
         89   -4.468E-06                                 F               0         Tower Y translation velocity, node 8, m/s
         90   -1.253E-03                                 F               0         Tower Z translation velocity, node 8, m/s
         91   -3.820E-04                                 F               0         Tower X translation velocity, node 9, m/s
         92   -5.233E-06                                 F               0         Tower Y translation velocity, node 9, m/s
         93   -1.252E-03                                 F               0         Tower Z translation velocity, node 9, m/s
         94   -4.312E-04                                 F               0         Tower X translation velocity, node 10, m/s
         95   -6.024E-06                                 F               0         Tower Y translation velocity, node 10, m/s
         96   -1.251E-03                                 F               0         Tower Z translation velocity, node 10, m/s
         97   -4.826E-04                                 F               0         Tower X translation velocity, node 11, m/s
         98   -6.833E-06                                 F               0         Tower Y translation velocity, node 11, m/s
         99   -1.250E-03                                 F               0         Tower Z translation velocity, node 11, m/s
        100    1.140E+01                                 F               0         Hub X translation displacement, node 1, m
        101   -7.100E+00                                 F               0         Hub Y translation displacement, node 1, m
        102    2.126E-02                                 F               0         Hub Z translation displacement, node 1, m
        103    9.918E-01,  1.213E-02, -1.270E-01         F               0         Hub X orientation angle, node 1, rad
        104    1.276E-01, -1.108E-01,  9.856E-01         F               0         Hub Y orientation angle, node 1, rad
        105   -2.124E-03, -9.938E-01, -1.115E-01         F               0         Hub Z orientation angle, node 1, rad
        106    8.862E-01                                 F               0         Hub X rotation velocity, node 1, rad/s
        107    1.084E-02                                 F               0         Hub Y rotation velocity, node 1, rad/s
        108   -1.135E-01                                 F               0         Hub Z rotation velocity, node 1, rad/s
        109    9.876E-01,  1.542E-02, -1.562E-01         F               0         Blade root 1 X orientation angle, node 1, rad
        110    1.570E-01, -1.104E-01,  9.814E-01         F               0         Blade root 1 Y orientation angle, node 1, rad
        111   -2.124E-03, -9.938E-01, -1.115E-01         F               0         Blade root 1 Z orientation angle, node 1, rad
        112    9.933E-01,  3.602E-02, -1.095E-01         F               0         Blade root 2 X orientation angle, node 1, rad
        113   -3.619E-02, -8.045E-01, -5.929E-01         F               0         Blade root 2 Y orientation angle, node 1, rad
        114   -1.095E-01,  5.929E-01, -7.978E-01         F               0         Blade root 2 Z orientation angle, node 1, rad
        115    9.932E-01, -1.505E-02, -1.152E-01         F               0         Blade root 3 X orientation angle, node 1, rad
        116   -3.251E-02,  9.160E-01, -3.998E-01         F               0         Blade root 3 Y orientation angle, node 1, rad
        117    1.116E-01,  4.009E-01,  9.093E-01         F               0         Blade root 3 Z orientation angle, node 1, rad
        118    1.081E+01                                 F               0         Blade 1 X translation displacement, node 1, m
        119   -1.261E+01                                 F               0         Blade 1 Y translation displacement, node 1, m
        120   -6.106E+00                                 F               0         Blade 1 Z translation displacement, node 1, m
        121    1.067E+01                                 F               0         Blade 1 X translation displacement, node 2, m
        122   -1.393E+01                                 F               0         Blade 1 Y translation displacement, node 2, m
        123   -7.582E+00                                 F               0         Blade 1 Z translation displacement, node 2, m
        124    8.730E+00                                 F               0         Blade 1 X translation displacement, node 3, m
        125   -3.197E+01                                 F               0         Blade 1 Y translation displacement, node 3, m
        126   -2.766E+01                                 F               0         Blade 1 Z translation displacement, node 3, m
        127    8.318E+00                                 F               0         Blade 1 X translation displacement, node 4, m
        128   -3.581E+01                                 F               0         Blade 1 Y translation displacement, node 4, m
        129   -3.194E+01                                 F               0         Blade 1 Z translation displacement, node 4, m
        130    7.905E+00                                 F               0         Blade 1 X translation displacement, node 5, m
        131   -3.966E+01                                 F               0         Blade 1 Y translation displacement, node 5, m
        132   -3.622E+01                                 F               0         Blade 1 Z translation displacement, node 5, m
        133    7.493E+00                                 F               0         Blade 1 X translation displacement, node 6, m
        134   -4.350E+01                                 F               0         Blade 1 Y translation displacement, node 6, m
        135   -4.049E+01                                 F               0         Blade 1 Z translation displacement, node 6, m
        136    7.080E+00                                 F               0         Blade 1 X translation displacement, node 7, m
        137   -4.735E+01                                 F               0         Blade 1 Y translation displacement, node 7, m
        138   -4.477E+01                                 F               0         Blade 1 Z translation displacement, node 7, m
        139    6.668E+00                                 F               0         Blade 1 X translation displacement, node 8, m
        140   -5.119E+01                                 F               0         Blade 1 Y translation displacement, node 8, m
        141   -4.905E+01                                 F               0         Blade 1 Z translation displacement, node 8, m
        142    6.255E+00                                 F               0         Blade 1 X translation displacement, node 9, m
        143   -5.503E+01                                 F               0         Blade 1 Y translation displacement, node 9, m
        144   -5.333E+01                                 F               0         Blade 1 Z translation displacement, node 9, m
        145    5.843E+00                                 F               0         Blade 1 X translation displacement, node 10, m
        146   -5.888E+01                                 F               0         Blade 1 Y translation displacement, node 10, m
        147   -5.760E+01                                 F               0         Blade 1 Z translation displacement, node 10, m
        148    5.430E+00                                 F               0         Blade 1 X translation displacement, node 11, m
        149   -6.272E+01                                 F               0         Blade 1 Y translation displacement, node 11, m
        150   -6.188E+01                                 F               0         Blade 1 Z translation displacement, node 11, m
        151    5.018E+00                                 F               0         Blade 1 X translation displacement, node 12, m
        152   -6.656E+01                                 F               0         Blade 1 Y translation displacement, node 12, m
        153   -6.616E+01                                 F               0         Blade 1 Z translation displacement, node 12, m
        154    4.605E+00                                 F               0         Blade 1 X translation displacement, node 13, m
        155   -7.041E+01                                 F               0         Blade 1 Y translation displacement, node 13, m
        156   -7.044E+01                                 F               0         Blade 1 Z translation displacement, node 13, m
        157    4.193E+00                                 F               0         Blade 1 X translation displacement, node 14, m
        158   -7.425E+01                                 F               0         Blade 1 Y translation displacement, node 14, m
        159   -7.471E+01                                 F               0         Blade 1 Z translation displacement, node 14, m
        160    3.780E+00                                 F               0         Blade 1 X translation displacement, node 15, m
        161   -7.809E+01                                 F               0         Blade 1 Y translation displacement, node 15, m
        162   -7.899E+01                                 F               0         Blade 1 Z translation displacement, node 15, m
        163    3.368E+00                                 F               0         Blade 1 X translation displacement, node 16, m
        164   -8.194E+01                                 F               0         Blade 1 Y translation displacement, node 16, m
        165   -8.327E+01                                 F               0         Blade 1 Z translation displacement, node 16, m
        166    2.955E+00                                 F               0         Blade 1 X translation displacement, node 17, m
        167   -8.578E+01                                 F               0         Blade 1 Y translation displacement, node 17, m
        168   -8.755E+01                                 F               0         Blade 1 Z translation displacement, node 17, m
        169    2.543E+00                                 F               0         Blade 1 X translation displacement, node 18, m
        170   -8.962E+01                                 F               0         Blade 1 Y translation displacement, node 18, m
        171   -9.182E+01                                 F               0         Blade 1 Z translation displacement, node 18, m
        172    2.130E+00                                 F               0         Blade 1 X translation displacement, node 19, m
        173   -9.347E+01                                 F               0         Blade 1 Y translation displacement, node 19, m
        174   -9.610E+01                                 F               0         Blade 1 Z translation displacement, node 19, m
        175    1.718E+00                                 F               0         Blade 1 X translation displacement, node 20, m
        176   -9.731E+01                                 F               0         Blade 1 Y translation displacement, node 20, m
        177   -1.004E+02                                 F               0         Blade 1 Z translation displacement, node 20, m
        178    1.305E+00                                 F               0         Blade 1 X translation displacement, node 21, m
        179   -1.012E+02                                 F               0         Blade 1 Y translation displacement, node 21, m
        180   -1.047E+02                                 F               0         Blade 1 Z translation displacement, node 21, m
        181    8.929E-01                                 F               0         Blade 1 X translation displacement, node 22, m
        182   -1.050E+02                                 F               0         Blade 1 Y translation displacement, node 22, m
        183   -1.089E+02                                 F               0         Blade 1 Z translation displacement, node 22, m
        184    4.804E-01                                 F               0         Blade 1 X translation displacement, node 23, m
        185   -1.088E+02                                 F               0         Blade 1 Y translation displacement, node 23, m
        186   -1.132E+02                                 F               0         Blade 1 Z translation displacement, node 23, m
        187    6.793E-02                                 F               0         Blade 1 X translation displacement, node 24, m
        188   -1.127E+02                                 F               0         Blade 1 Y translation displacement, node 24, m
        189   -1.175E+02                                 F               0         Blade 1 Z translation displacement, node 24, m
        190   -3.445E-01                                 F               0         Blade 1 X translation displacement, node 25, m
        191   -1.165E+02                                 F               0         Blade 1 Y translation displacement, node 25, m
        192   -1.218E+02                                 F               0         Blade 1 Z translation displacement, node 25, m
        193   -7.571E-01                                 F               0         Blade 1 X translation displacement, node 26, m
        194   -1.204E+02                                 F               0         Blade 1 Y translation displacement, node 26, m
        195   -1.260E+02                                 F               0         Blade 1 Z translation displacement, node 26, m
        196   -1.170E+00                                 F               0         Blade 1 X translation displacement, node 27, m
        197   -1.242E+02                                 F               0         Blade 1 Y translation displacement, node 27, m
        198   -1.303E+02                                 F               0         Blade 1 Z translation displacement, node 27, m
        199   -1.519E+00                                 F               0         Blade 1 X translation displacement, node 28, m
        200   -1.275E+02                                 F               0         Blade 1 Y translation displacement, node 28, m
        201   -1.340E+02                                 F               0         Blade 1 Z translation displacement, node 28, m
        202    8.074E-01,  6.408E-02, -5.866E-01         F               0         Blade 1 X orientation angle, node 1, rad
        203    5.901E-01, -9.126E-02,  8.022E-01         F               0         Blade 1 Y orientation angle, node 1, rad
        204   -2.124E-03, -9.938E-01, -1.115E-01         F               0         Blade 1 Z orientation angle, node 1, rad
        205    8.074E-01,  6.408E-02, -5.866E-01         F               0         Blade 1 X orientation angle, node 2, rad
        206    5.901E-01, -9.126E-02,  8.022E-01         F               0         Blade 1 Y orientation angle, node 2, rad
        207   -2.124E-03, -9.938E-01, -1.115E-01         F               0         Blade 1 Z orientation angle, node 2, rad
        208    9.242E-01,  4.063E-02, -3.797E-01         F               0         Blade 1 X orientation angle, node 3, rad
        209    3.819E-01, -1.038E-01,  9.184E-01         F               0         Blade 1 Y orientation angle, node 3, rad
        210   -2.124E-03, -9.938E-01, -1.115E-01         F               0         Blade 1 Z orientation angle, node 3, rad
        211    9.395E-01,  3.621E-02, -3.406E-01         F               0         Blade 1 X orientation angle, node 4, rad
        212    3.425E-01, -1.055E-01,  9.336E-01         F               0         Blade 1 Y orientation angle, node 4, rad
        213   -2.124E-03, -9.938E-01, -1.115E-01         F               0         Blade 1 Z orientation angle, node 4, rad
        214    9.503E-01,  3.269E-02, -3.095E-01         F               0         Blade 1 X orientation angle, node 5, rad
        215    3.112E-01, -1.066E-01,  9.443E-01         F               0         Blade 1 Y orientation angle, node 5, rad
        216   -2.124E-03, -9.938E-01, -1.115E-01         F               0         Blade 1 Z orientation angle, node 5, rad
        217    9.583E-01,  2.985E-02, -2.843E-01         F               0         Blade 1 X orientation angle, node 6, rad
        218    2.859E-01, -1.074E-01,  9.522E-01         F               0         Blade 1 Y orientation angle, node 6, rad
        219   -2.124E-03, -9.938E-01, -1.115E-01         F               0         Blade 1 Z orientation angle, node 6, rad
        220    9.643E-01,  2.750E-02, -2.635E-01         F               0         Blade 1 X orientation angle, node 7, rad
        221    2.649E-01, -1.081E-01,  9.582E-01         F               0         Blade 1 Y orientation angle, node 7, rad
        222   -2.124E-03, -9.938E-01, -1.115E-01         F               0         Blade 1 Z orientation angle, node 7, rad
        223    9.689E-01,  2.553E-02, -2.460E-01         F               0         Blade 1 X orientation angle, node 8, rad
        224    2.474E-01, -1.085E-01,  9.628E-01         F               0         Blade 1 Y orientation angle, node 8, rad
        225   -2.124E-03, -9.938E-01, -1.115E-01         F               0         Blade 1 Z orientation angle, node 8, rad
        226    9.726E-01,  2.386E-02, -2.312E-01         F               0         Blade 1 X orientation angle, node 9, rad
        227    2.325E-01, -1.089E-01,  9.665E-01         F               0         Blade 1 Y orientation angle, node 9, rad