
Linearized model: Predictions were generated on 31-Jan-2024 at 12:35:17 using OpenFAST, compiled as a 64-bit application using single precision at commit v3.5.1
 linked with  NWTC Subroutine Library; ElastoDyn; InflowWind; AeroDyn; ServoDyn; HydroDyn; MAP++ (<1.20.10>, <Oct-20-2023>)

Description from the FAST input file: CCT-9 Campign 4 model. Input files to be run with OpenFAST 3.5.0. GitHub branch from Lu Wang (https://github.com/luwang00/openfast/tree/dev) compiled on March 7, 2023.

Simulation information:
   Simulation time:                   507.4250 s
   Rotor Speed:                         0.8936 rad/s
   Azimuth:                             1.0990 rad
   Wind Speed:                         10.0000 m/s
   Number of continuous states:        12
   Number of discrete states:           0
   Number of constraint states:         0
   Number of inputs:                 3988
   Number of outputs:                  36
   Jacobians included in this file?    No

Order of continuous states:
   Row/Column Operating Point                     Rotating Frame? Derivative Order Description
   ---------- ---------------                     --------------- ---------------- -----------
          1    8.163E+00                                 F               2         ED Platform horizontal surge translation DOF (internal DOF index = DOF_Sg), m
          2   -9.089E-02                                 F               2         ED Platform vertical heave translation DOF (internal DOF index = DOF_Hv), m
          3    7.100E-03                                 F               2         ED Platform yaw rotation DOF (internal DOF index = DOF_Y), rad
          4    3.857E-01                                 F               2         ED 1st tower fore-aft bending mode DOF (internal DOF index = DOF_TFA1), m
          5    1.285E-03                                 F               2         ED 2nd tower fore-aft bending mode DOF (internal DOF index = DOF_TFA2), m
          6    5.811E+00                                 F               2         ED Variable speed generator DOF (internal DOF index = DOF_GeAz), rad
          7   -2.663E-03                                 F               2         ED First time derivative of Platform horizontal surge translation DOF (internal DOF index = DOF_Sg), m/s
          8   -6.526E-03                                 F               2         ED First time derivative of Platform vertical heave translation DOF (internal DOF index = DOF_Hv), m/s
          9   -2.434E-06                                 F               2         ED First time derivative of Platform yaw rotation DOF (internal DOF index = DOF_Y), rad/s
         10    8.236E-05                                 F               2         ED First time derivative of 1st tower fore-aft bending mode DOF (internal DOF index = DOF_TFA1), m/s
         11   -1.988E-06                                 F               2         ED First time derivative of 2nd tower fore-aft bending mode DOF (internal DOF index = DOF_TFA2), m/s
         12    8.936E-01                                 F               2         ED First time derivative of Variable speed generator DOF (internal DOF index = DOF_GeAz), rad/s

Order of continuous state derivatives:
   Row/Column Operating Point                     Rotating Frame? Derivative Order Description
   ---------- ---------------                     --------------- ---------------- -----------
          1   -2.663E-03                                 F               2         First time derivative of ED Platform horizontal surge translation DOF (internal DOF index = DOF_Sg), m/s
          2   -6.526E-03                                 F               2         First time derivative of ED Platform vertical heave translation DOF (internal DOF index = DOF_Hv), m/s
          3   -2.434E-06                                 F               2         First time derivative of ED Platform yaw rotation DOF (internal DOF index = DOF_Y), rad/s
          4    8.236E-05                                 F               2         First time derivative of ED 1st tower fore-aft bending mode DOF (internal DOF index = DOF_TFA1), m/s
          5   -1.988E-06                                 F               2         First time derivative of ED 2nd tower fore-aft bending mode DOF (internal DOF index = DOF_TFA2), m/s
          6    8.936E-01                                 F               2         First time derivative of ED Variable speed generator DOF (internal DOF index = DOF_GeAz), rad/s
          7   -2.406E-04                                 F               2         First time derivative of ED First time derivative of Platform horizontal surge translation DOF (internal DOF index = DOF_Sg), m/s/s
          8    1.725E-03                                 F               2         First time derivative of ED First time derivative of Platform vertical heave translation DOF (internal DOF index = DOF_Hv), m/s/s
          9   -1.917E-07                                 F               2         First time derivative of ED First time derivative of Platform yaw rotation DOF (internal DOF index = DOF_Y), rad/s/s
         10   -7.725E-04                                 F               2         First time derivative of ED First time derivative of 1st tower fore-aft bending mode DOF (internal DOF index = DOF_TFA1), m/s/s
         11   -6.602E-07                                 F               2         First time derivative of ED First time derivative of 2nd tower fore-aft bending mode DOF (internal DOF index = DOF_TFA2), m/s/s
         12    3.887E-05                                 F               2         First time derivative of ED First time derivative of Variable speed generator DOF (internal DOF index = DOF_GeAz), rad/s/s

Order of inputs:
     Column   Operating Point                     Rotating Frame? Derivative Order Description
   ---------- ---------------                     --------------- ---------------- -----------
          1   -1.080E+01                                 F               0         IfW X-component position of node 1 (hub), m
          2    0.000E+00                                 F               0         IfW Y-component position of node 1 (hub), m
          3    1.497E+02                                 F               0         IfW Z-component position of node 1 (hub), m
          4    9.438E-01                                 F               0         IfW X-component position of node 2 (blade 1, node 1), m
          5   -1.214E+01                                 F               0         IfW Y-component position of node 2 (blade 1, node 1), m
          6    1.520E+02                                 F               0         IfW Z-component position of node 2 (blade 1, node 1), m
          7    1.029E+00                                 F               0         IfW X-component position of node 3 (blade 1, node 2), m
          8   -1.335E+01                                 F               0         IfW Y-component position of node 3 (blade 1, node 2), m
          9    1.526E+02                                 F               0         IfW Z-component position of node 3 (blade 1, node 2), m
         10    2.189E+00                                 F               0         IfW X-component position of node 4 (blade 1, node 3), m
         11   -2.985E+01                                 F               0         IfW Y-component position of node 4 (blade 1, node 3), m
         12    1.600E+02                                 F               0         IfW Z-component position of node 4 (blade 1, node 3), m
         13    2.436E+00                                 F               0         IfW X-component position of node 5 (blade 1, node 4), m
         14   -3.337E+01                                 F               0         IfW Y-component position of node 5 (blade 1, node 4), m
         15    1.616E+02                                 F               0         IfW Z-component position of node 5 (blade 1, node 4), m
         16    2.683E+00                                 F               0         IfW X-component position of node 6 (blade 1, node 5), m
         17   -3.688E+01                                 F               0         IfW Y-component position of node 6 (blade 1, node 5), m
         18    1.632E+02                                 F               0         IfW Z-component position of node 6 (blade 1, node 5), m
         19    2.930E+00                                 F               0         IfW X-component position of node 7 (blade 1, node 6), m
         20   -4.040E+01                                 F               0         IfW Y-component position of node 7 (blade 1, node 6), m
         21    1.648E+02                                 F               0         IfW Z-component position of node 7 (blade 1, node 6), m
         22    3.177E+00                                 F               0         IfW X-component position of node 8 (blade 1, node 7), m
         23   -4.391E+01                                 F               0         IfW Y-component position of node 8 (blade 1, node 7), m
         24    1.664E+02                                 F               0         IfW Z-component position of node 8 (blade 1, node 7), m
         25    3.424E+00                                 F               0         IfW X-component position of node 9 (blade 1, node 8), m
         26   -4.743E+01                                 F               0         IfW Y-component position of node 9 (blade 1, node 8), m
         27    1.680E+02                                 F               0         IfW Z-component position of node 9 (blade 1, node 8), m
         28    3.671E+00                                 F               0         IfW X-component position of node 10 (blade 1, node 9), m
         29   -5.094E+01                                 F               0         IfW Y-component position of node 10 (blade 1, node 9), m
         30    1.696E+02                                 F               0         IfW Z-component position of node 10 (blade 1, node 9), m
         31    3.918E+00                                 F               0         IfW X-component position of node 11 (blade 1, node 10), m
         32   -5.446E+01                                 F               0         IfW Y-component position of node 11 (blade 1, node 10), m
         33    1.712E+02                                 F               0         IfW Z-component position of node 11 (blade 1, node 10), m
         34    4.165E+00                                 F               0         IfW X-component position of node 12 (blade 1, node 11), m
         35   -5.798E+01                                 F               0         IfW Y-component position of node 12 (blade 1, node 11), m
         36    1.728E+02                                 F               0         IfW Z-component position of node 12 (blade 1, node 11), m
         37    4.413E+00                                 F               0         IfW X-component position of node 13 (blade 1, node 12), m
         38   -6.149E+01                                 F               0         IfW Y-component position of node 13 (blade 1, node 12), m
         39    1.744E+02                                 F               0         IfW Z-component position of node 13 (blade 1, node 12), m
         40    4.660E+00                                 F               0         IfW X-component position of node 14 (blade 1, node 13), m
         41   -6.501E+01                                 F               0         IfW Y-component position of node 14 (blade 1, node 13), m
         42    1.760E+02                                 F               0         IfW Z-component position of node 14 (blade 1, node 13), m
         43    4.907E+00                                 F               0         IfW X-component position of node 15 (blade 1, node 14), m
         44   -6.852E+01                                 F               0         IfW Y-component position of node 15 (blade 1, node 14), m
         45    1.775E+02                                 F               0         IfW Z-component position of node 15 (blade 1, node 14), m
         46    5.154E+00                                 F               0         IfW X-component position of node 16 (blade 1, node 15), m
         47   -7.204E+01                                 F               0         IfW Y-component position of node 16 (blade 1, node 15), m
         48    1.791E+02                                 F               0         IfW Z-component position of node 16 (blade 1, node 15), m
         49    5.401E+00                                 F               0         IfW X-component position of node 17 (blade 1, node 16), m
         50   -7.556E+01                                 F               0         IfW Y-component position of node 17 (blade 1, node 16), m
         51    1.807E+02                                 F               0         IfW Z-component position of node 17 (blade 1, node 16), m
         52    5.648E+00                                 F               0         IfW X-component position of node 18 (blade 1, node 17), m
         53   -7.907E+01                                 F               0         IfW Y-component position of node 18 (blade 1, node 17), m
         54    1.823E+02                                 F               0         IfW Z-component position of node 18 (blade 1, node 17), m
         55    5.895E+00                                 F               0         IfW X-component position of node 19 (blade 1, node 18), m
         56   -8.259E+01                                 F               0         IfW Y-component position of node 19 (blade 1, node 18), m
         57    1.839E+02                                 F               0         IfW Z-component position of node 19 (blade 1, node 18), m
         58    6.142E+00                                 F               0         IfW X-component position of node 20 (blade 1, node 19), m
         59   -8.610E+01                                 F               0         IfW Y-component position of node 20 (blade 1, node 19), m
         60    1.855E+02                                 F               0         IfW Z-component position of node 20 (blade 1, node 19), m
         61    6.389E+00                                 F               0         IfW X-component position of node 21 (blade 1, node 20), m
         62   -8.962E+01                                 F               0         IfW Y-component position of node 21 (blade 1, node 20), m
         63    1.871E+02                                 F               0         IfW Z-component position of node 21 (blade 1, node 20), m
         64    6.636E+00                                 F               0         IfW X-component position of node 22 (blade 1, node 21), m
         65   -9.313E+01                                 F               0         IfW Y-component position of node 22 (blade 1, node 21), m
         66    1.887E+02                                 F               0         IfW Z-component position of node 22 (blade 1, node 21), m
         67    6.883E+00                                 F               0         IfW X-component position of node 23 (blade 1, node 22), m
         68   -9.665E+01                                 F               0         IfW Y-component position of node 23 (blade 1, node 22), m
         69    1.903E+02                                 F               0         IfW Z-component position of node 23 (blade 1, node 22), m
         70    7.130E+00                                 F               0         IfW X-component position of node 24 (blade 1, node 23), m
         71   -1.002E+02                                 F               0         IfW Y-component position of node 24 (blade 1, node 23), m
         72    1.919E+02                                 F               0         IfW Z-component position of node 24 (blade 1, node 23), m
         73    7.378E+00                                 F               0         IfW X-component position of node 25 (blade 1, node 24), m
         74   -1.037E+02                                 F               0         IfW Y-component position of node 25 (blade 1, node 24), m
         75    1.935E+02                                 F               0         IfW Z-component position of node 25 (blade 1, node 24), m
         76    7.625E+00                                 F               0         IfW X-component position of node 26 (blade 1, node 25), m
         77   -1.072E+02                                 F               0         IfW Y-component position of node 26 (blade 1, node 25), m
         78    1.951E+02                                 F               0         IfW Z-component position of node 26 (blade 1, node 25), m
         79    7.872E+00                                 F               0         IfW X-component position of node 27 (blade 1, node 26), m
         80   -1.107E+02                                 F               0         IfW Y-component position of node 27 (blade 1, node 26), m
         81    1.967E+02                                 F               0         IfW Z-component position of node 27 (blade 1, node 26), m
         82    8.119E+00                                 F               0         IfW X-component position of node 28 (blade 1, node 27), m
         83   -1.142E+02                                 F               0         IfW Y-component position of node 28 (blade 1, node 27), m
         84    1.983E+02                                 F               0         IfW Z-component position of node 28 (blade 1, node 27), m
         85    8.328E+00                                 F               0         IfW X-component position of node 29 (blade 1, node 28), m
         86   -1.172E+02                                 F               0         IfW Y-component position of node 29 (blade 1, node 28), m
         87    1.996E+02                                 F               0         IfW Z-component position of node 29 (blade 1, node 28), m
         88   -1.172E-01                                 F               0         IfW X-component position of node 30 (blade 2, node 1), m
         89   -6.580E+00                                 F               0         IfW Y-component position of node 30 (blade 2, node 1), m
         90    1.443E+02                                 F               0         IfW Z-component position of node 30 (blade 2, node 1), m
         91   -2.876E-01                                 F               0         IfW X-component position of node 31 (blade 2, node 2), m
         92   -6.455E+00                                 F               0         IfW Y-component position of node 31 (blade 2, node 2), m
         93    1.429E+02                                 F               0         IfW Z-component position of node 31 (blade 2, node 2), m
         94   -2.604E+00                                 F               0         IfW X-component position of node 32 (blade 2, node 3), m
         95   -4.754E+00                                 F               0         IfW Y-component position of node 32 (blade 2, node 3), m
         96    1.250E+02                                 F               0         IfW Z-component position of node 32 (blade 2, node 3), m
         97   -3.098E+00                                 F               0         IfW X-component position of node 33 (blade 2, node 4), m
         98   -4.391E+00                                 F               0         IfW Y-component position of node 33 (blade 2, node 4), m
         99    1.212E+02                                 F               0         IfW Z-component position of node 33 (blade 2, node 4), m
        100   -3.592E+00                                 F               0         IfW X-component position of node 34 (blade 2, node 5), m
        101   -4.029E+00                                 F               0         IfW Y-component position of node 34 (blade 2, node 5), m
        102    1.174E+02                                 F               0         IfW Z-component position of node 34 (blade 2, node 5), m
        103   -4.085E+00                                 F               0         IfW X-component position of node 35 (blade 2, node 6), m
        104   -3.666E+00                                 F               0         IfW Y-component position of node 35 (blade 2, node 6), m
        105    1.136E+02                                 F               0         IfW Z-component position of node 35 (blade 2, node 6), m
        106   -4.579E+00                                 F               0         IfW X-component position of node 36 (blade 2, node 7), m
        107   -3.304E+00                                 F               0         IfW Y-component position of node 36 (blade 2, node 7), m
        108    1.097E+02                                 F               0         IfW Z-component position of node 36 (blade 2, node 7), m
        109   -5.073E+00                                 F               0         IfW X-component position of node 37 (blade 2, node 8), m
        110   -2.941E+00                                 F               0         IfW Y-component position of node 37 (blade 2, node 8), m
        111    1.059E+02                                 F               0         IfW Z-component position of node 37 (blade 2, node 8), m
        112   -5.566E+00                                 F               0         IfW X-component position of node 38 (blade 2, node 9), m
        113   -2.579E+00                                 F               0         IfW Y-component position of node 38 (blade 2, node 9), m
        114    1.021E+02                                 F               0         IfW Z-component position of node 38 (blade 2, node 9), m
        115   -6.060E+00                                 F               0         IfW X-component position of node 39 (blade 2, node 10), m
        116   -2.216E+00                                 F               0         IfW Y-component position of node 39 (blade 2, node 10), m
        117    9.828E+01                                 F               0         IfW Z-component position of node 39 (blade 2, node 10), m
        118   -6.553E+00                                 F               0         IfW X-component position of node 40 (blade 2, node 11), m
        119   -1.854E+00                                 F               0         IfW Y-component position of node 40 (blade 2, node 11), m
        120    9.446E+01                                 F               0         IfW Z-component position of node 40 (blade 2, node 11), m
        121   -7.047E+00                                 F               0         IfW X-component position of node 41 (blade 2, node 12), m
        122   -1.491E+00                                 F               0         IfW Y-component position of node 41 (blade 2, node 12), m
        123    9.064E+01                                 F               0         IfW Z-component position of node 41 (blade 2, node 12), m
        124   -7.541E+00                                 F               0         IfW X-component position of node 42 (blade 2, node 13), m
        125   -1.129E+00                                 F               0         IfW Y-component position of node 42 (blade 2, node 13), m
        126    8.682E+01                                 F               0         IfW Z-component position of node 42 (blade 2, node 13), m
        127   -8.034E+00                                 F               0         IfW X-component position of node 43 (blade 2, node 14), m
        128   -7.662E-01                                 F               0         IfW Y-component position of node 43 (blade 2, node 14), m
        129    8.300E+01                                 F               0         IfW Z-component position of node 43 (blade 2, node 14), m
        130   -8.528E+00                                 F               0         IfW X-component position of node 44 (blade 2, node 15), m
        131   -4.036E-01                                 F               0         IfW Y-component position of node 44 (blade 2, node 15), m
        132    7.918E+01                                 F               0         IfW Z-component position of node 44 (blade 2, node 15), m
        133   -9.022E+00                                 F               0         IfW X-component position of node 45 (blade 2, node 16), m
        134   -4.111E-02                                 F               0         IfW Y-component position of node 45 (blade 2, node 16), m
        135    7.536E+01                                 F               0         IfW Z-component position of node 45 (blade 2, node 16), m
        136   -9.515E+00                                 F               0         IfW X-component position of node 46 (blade 2, node 17), m
        137    3.214E-01                                 F               0         IfW Y-component position of node 46 (blade 2, node 17), m
        138    7.155E+01                                 F               0         IfW Z-component position of node 46 (blade 2, node 17), m
        139   -1.001E+01                                 F               0         IfW X-component position of node 47 (blade 2, node 18), m
        140    6.839E-01                                 F               0         IfW Y-component position of node 47 (blade 2, node 18), m
        141    6.773E+01                                 F               0         IfW Z-component position of node 47 (blade 2, node 18), m
        142   -1.050E+01                                 F               0         IfW X-component position of node 48 (blade 2, node 19), m
        143    1.046E+00                                 F               0         IfW Y-component position of node 48 (blade 2, node 19), m
        144    6.391E+01                                 F               0         IfW Z-component position of node 48 (blade 2, node 19), m
        145   -1.100E+01                                 F               0         IfW X-component position of node 49 (blade 2, node 20), m
        146    1.409E+00                                 F               0         IfW Y-component position of node 49 (blade 2, node 20), m
        147    6.009E+01                                 F               0         IfW Z-component position of node 49 (blade 2, node 20), m
        148   -1.149E+01                                 F               0         IfW X-component position of node 50 (blade 2, node 21), m
        149    1.771E+00                                 F               0         IfW Y-component position of node 50 (blade 2, node 21), m
        150    5.627E+01                                 F               0         IfW Z-component position of node 50 (blade 2, node 21), m
        151   -1.198E+01                                 F               0         IfW X-component position of node 51 (blade 2, node 22), m
        152    2.134E+00                                 F               0         IfW Y-component position of node 51 (blade 2, node 22), m
        153    5.245E+01                                 F               0         IfW Z-component position of node 51 (blade 2, node 22), m
        154   -1.248E+01                                 F               0         IfW X-component position of node 52 (blade 2, node 23), m
        155    2.497E+00                                 F               0         IfW Y-component position of node 52 (blade 2, node 23), m
        156    4.863E+01                                 F               0         IfW Z-component position of node 52 (blade 2, node 23), m
        157   -1.297E+01                                 F               0         IfW X-component position of node 53 (blade 2, node 24), m
        158    2.859E+00                                 F               0         IfW Y-component position of node 53 (blade 2, node 24), m
        159    4.481E+01                                 F               0         IfW Z-component position of node 53 (blade 2, node 24), m
        160   -1.346E+01                                 F               0         IfW X-component position of node 54 (blade 2, node 25), m
        161    3.222E+00                                 F               0         IfW Y-component position of node 54 (blade 2, node 25), m
        162    4.099E+01                                 F               0         IfW Z-component position of node 54 (blade 2, node 25), m
        163   -1.396E+01                                 F               0         IfW X-component position of node 55 (blade 2, node 26), m
        164    3.584E+00                                 F               0         IfW Y-component position of node 55 (blade 2, node 26), m
        165    3.717E+01                                 F               0         IfW Z-component position of node 55 (blade 2, node 26), m
        166   -1.445E+01                                 F               0         IfW X-component position of node 56 (blade 2, node 27), m
        167    3.947E+00                                 F               0         IfW Y-component position of node 56 (blade 2, node 27), m
        168    3.336E+01                                 F               0         IfW Z-component position of node 56 (blade 2, node 27), m
        169   -1.487E+01                                 F               0         IfW X-component position of node 57 (blade 2, node 28), m
        170    4.254E+00                                 F               0         IfW Y-component position of node 57 (blade 2, node 28), m
        171    3.012E+01                                 F               0         IfW Z-component position of node 57 (blade 2, node 28), m