
Linearized model: Predictions were generated on 31-Jan-2024 at 12:35:17 using OpenFAST, compiled as a 64-bit application using single precision at commit v3.5.1
 linked with  NWTC Subroutine Library; ElastoDyn; InflowWind; AeroDyn; ServoDyn; HydroDyn; MAP++ (<1.20.10>, <Oct-20-2023>)

Description from the FAST input file: CCT-9 Campign 4 model. Input files to be run with OpenFAST 3.5.0. GitHub branch from Lu Wang (https://github.com/luwang00/openfast/tree/dev) compiled on March 7, 2023.

Simulation information:
   Simulation time:                   500.2500 s
   Rotor Speed:                         0.8935 rad/s
   Azimuth:                             0.9697 rad
   Wind Speed:                         10.0000 m/s
   Number of continuous states:        12
   Number of discrete states:           0
   Number of constraint states:         0
   Number of inputs:                 1890
   Number of outputs:                  19
   Jacobians included in this file?    No

Order of continuous states:
   Row/Column Operating Point                     Rotating Frame? Derivative Order Description
   ---------- ---------------                     --------------- ---------------- -----------
          1    8.172E+00                                 F               2         Platform horizontal surge translation DOF (internal DOF index = DOF_Sg), m
          2   -5.033E-02                                 F               2         Platform vertical heave translation DOF (internal DOF index = DOF_Hv), m
          3    7.093E-03                                 F               2         Platform yaw rotation DOF (internal DOF index = DOF_Y), rad
          4    3.856E-01                                 F               2         1st tower fore-aft bending mode DOF (internal DOF index = DOF_TFA1), m
          5    1.285E-03                                 F               2         2nd tower fore-aft bending mode DOF (internal DOF index = DOF_TFA2), m
          6    5.682E+00                                 F               2         Variable speed generator DOF (internal DOF index = DOF_GeAz), rad
          7    9.491E-05                                 F               2         First time derivative of Platform horizontal surge translation DOF (internal DOF index = DOF_Sg), m/s
          8    4.577E-04                                 F               2         First time derivative of Platform vertical heave translation DOF (internal DOF index = DOF_Hv), m/s
          9   -1.919E-06                                 F               2         First time derivative of Platform yaw rotation DOF (internal DOF index = DOF_Y), rad/s
         10    1.585E-04                                 F               2         First time derivative of 1st tower fore-aft bending mode DOF (internal DOF index = DOF_TFA1), m/s
         11   -2.127E-06                                 F               2         First time derivative of 2nd tower fore-aft bending mode DOF (internal DOF index = DOF_TFA2), m/s
         12    8.935E-01                                 F               2         First time derivative of Variable speed generator DOF (internal DOF index = DOF_GeAz), rad/s

Order of continuous state derivatives:
   Row/Column Operating Point                     Rotating Frame? Derivative Order Description
   ---------- ---------------                     --------------- ---------------- -----------
          1    9.491E-05                                 F               2         First time derivative of Platform horizontal surge translation DOF (internal DOF index = DOF_Sg), m/s
          2    4.577E-04                                 F               2         First time derivative of Platform vertical heave translation DOF (internal DOF index = DOF_Hv), m/s
          3   -1.919E-06                                 F               2         First time derivative of Platform yaw rotation DOF (internal DOF index = DOF_Y), rad/s
          4    1.585E-04                                 F               2         First time derivative of 1st tower fore-aft bending mode DOF (internal DOF index = DOF_TFA1), m/s
          5   -2.127E-06                                 F               2         First time derivative of 2nd tower fore-aft bending mode DOF (internal DOF index = DOF_TFA2), m/s
          6    8.935E-01                                 F               2         First time derivative of Variable speed generator DOF (internal DOF index = DOF_GeAz), rad/s
          7   -3.396E-04                                 F               2         First time derivative of First time derivative of Platform horizontal surge translation DOF (internal DOF index = DOF_Sg), m/s/s
          8   -2.283E-03                                 F               2         First time derivative of First time derivative of Platform vertical heave translation DOF (internal DOF index = DOF_Hv), m/s/s
          9   -3.524E-07                                 F               2         First time derivative of First time derivative of Platform yaw rotation DOF (internal DOF index = DOF_Y), rad/s/s
         10   -8.718E-04                                 F               2         First time derivative of First time derivative of 1st tower fore-aft bending mode DOF (internal DOF index = DOF_TFA1), m/s/s
         11    2.752E-07                                 F               2         First time derivative of First time derivative of 2nd tower fore-aft bending mode DOF (internal DOF index = DOF_TFA2), m/s/s
         12    1.208E-05                                 F               2         First time derivative of First time derivative of Variable speed generator DOF (internal DOF index = DOF_GeAz), rad/s/s

Order of inputs:
     Column   Operating Point                     Rotating Frame? Derivative Order Description
   ---------- ---------------                     --------------- ---------------- -----------
          1    8.833E+01                                 F               0         Blade 1 X force, node 1, N
          2    5.734E+01                                 F               0         Blade 1 Y force, node 1, N
          3    7.957E+01                                 F               0         Blade 1 Z force, node 1, N
          4    3.461E+02                                 F               0         Blade 1 X force, node 2, N
          5    1.058E+02                                 F               0         Blade 1 Y force, node 2, N
          6    1.197E+02                                 F               0         Blade 1 Z force, node 2, N
          7    4.288E+02                                 F               0         Blade 1 X force, node 3, N
          8    7.319E+01                                 F               0         Blade 1 Y force, node 3, N
          9    5.484E+01                                 F               0         Blade 1 Z force, node 3, N
         10    5.485E+02                                 F               0         Blade 1 X force, node 4, N
         11    5.394E+01                                 F               0         Blade 1 Y force, node 4, N
         12    6.039E+00                                 F               0         Blade 1 Z force, node 4, N
         13    6.682E+02                                 F               0         Blade 1 X force, node 5, N
         14    3.469E+01                                 F               0         Blade 1 Y force, node 5, N
         15   -4.276E+01                                 F               0         Blade 1 Z force, node 5, N
         16    7.879E+02                                 F               0         Blade 1 X force, node 6, N
         17    1.543E+01                                 F               0         Blade 1 Y force, node 6, N
         18   -9.157E+01                                 F               0         Blade 1 Z force, node 6, N
         19    9.076E+02                                 F               0         Blade 1 X force, node 7, N
         20   -3.822E+00                                 F               0         Blade 1 Y force, node 7, N
         21   -1.404E+02                                 F               0         Blade 1 Z force, node 7, N
         22    1.027E+03                                 F               0         Blade 1 X force, node 8, N
         23   -2.308E+01                                 F               0         Blade 1 Y force, node 8, N
         24   -1.892E+02                                 F               0         Blade 1 Z force, node 8, N
         25    1.147E+03                                 F               0         Blade 1 X force, node 9, N
         26   -4.233E+01                                 F               0         Blade 1 Y force, node 9, N
         27   -2.380E+02                                 F               0         Blade 1 Z force, node 9, N
         28    1.267E+03                                 F               0         Blade 1 X force, node 10, N
         29   -6.158E+01                                 F               0         Blade 1 Y force, node 10, N
         30   -2.868E+02                                 F               0         Blade 1 Z force, node 10, N
         31    1.386E+03                                 F               0         Blade 1 X force, node 11, N
         32   -8.084E+01                                 F               0         Blade 1 Y force, node 11, N
         33   -3.356E+02                                 F               0         Blade 1 Z force, node 11, N
         34    1.506E+03                                 F               0         Blade 1 X force, node 12, N
         35   -1.001E+02                                 F               0         Blade 1 Y force, node 12, N
         36   -3.844E+02                                 F               0         Blade 1 Z force, node 12, N
         37    1.626E+03                                 F               0         Blade 1 X force, node 13, N
         38   -1.193E+02                                 F               0         Blade 1 Y force, node 13, N
         39   -4.332E+02                                 F               0         Blade 1 Z force, node 13, N
         40    1.745E+03                                 F               0         Blade 1 X force, node 14, N
         41   -1.386E+02                                 F               0         Blade 1 Y force, node 14, N
         42   -4.820E+02                                 F               0         Blade 1 Z force, node 14, N
         43    1.865E+03                                 F               0         Blade 1 X force, node 15, N
         44   -1.579E+02                                 F               0         Blade 1 Y force, node 15, N
         45   -5.308E+02                                 F               0         Blade 1 Z force, node 15, N
         46    1.985E+03                                 F               0         Blade 1 X force, node 16, N
         47   -1.771E+02                                 F               0         Blade 1 Y force, node 16, N
         48   -5.796E+02                                 F               0         Blade 1 Z force, node 16, N
         49    2.443E+03                                 F               0         Blade 1 X force, node 17, N
         50   -2.267E+02                                 F               0         Blade 1 Y force, node 17, N
         51   -7.274E+02                                 F               0         Blade 1 Z force, node 17, N
         52    1.882E+03                                 F               0         Blade 1 X force, node 18, N
         53   -1.681E+02                                 F               0         Blade 1 Y force, node 18, N
         54   -5.498E+02                                 F               0         Blade 1 Z force, node 18, N
         55    2.335E+03                                 F               0         Blade 1 X force, node 19, N
         56   -1.959E+02                                 F               0         Blade 1 Y force, node 19, N
         57   -6.617E+02                                 F               0         Blade 1 Z force, node 19, N
         58    2.011E+03                                 F               0         Blade 1 X force, node 20, N
         59   -1.589E+02                                 F               0         Blade 1 Y force, node 20, N
         60   -5.540E+02                                 F               0         Blade 1 Z force, node 20, N
         61    3.003E+03                                 F               0         Blade 1 X force, node 21, N
         62   -2.209E+02                                 F               0         Blade 1 Y force, node 21, N
         63   -8.009E+02                                 F               0         Blade 1 Z force, node 21, N
         64    2.678E+03                                 F               0         Blade 1 X force, node 22, N
         65   -1.830E+02                                 F               0         Blade 1 Y force, node 22, N
         66   -6.917E+02                                 F               0         Blade 1 Z force, node 22, N
         67    2.776E+03                                 F               0         Blade 1 X force, node 23, N
         68   -1.772E+02                                 F               0         Blade 1 Y force, node 23, N
         69   -6.967E+02                                 F               0         Blade 1 Z force, node 23, N
         70    2.923E+03                                 F               0         Blade 1 X force, node 24, N
         71   -1.743E+02                                 F               0         Blade 1 Y force, node 24, N
         72   -7.138E+02                                 F               0         Blade 1 Z force, node 24, N
         73    3.019E+03                                 F               0         Blade 1 X force, node 25, N
         74   -1.679E+02                                 F               0         Blade 1 Y force, node 25, N
         75   -7.177E+02                                 F               0         Blade 1 Z force, node 25, N
         76    3.132E+03                                 F               0         Blade 1 X force, node 26, N
         77   -1.624E+02                                 F               0         Blade 1 Y force, node 26, N
         78   -7.254E+02                                 F               0         Blade 1 Z force, node 26, N
         79    3.780E+03                                 F               0         Blade 1 X force, node 27, N
         80   -1.820E+02                                 F               0         Blade 1 Y force, node 27, N
         81   -8.530E+02                                 F               0         Blade 1 Z force, node 27, N
         82    2.821E+03                                 F               0         Blade 1 X force, node 28, N
         83   -1.261E+02                                 F               0         Blade 1 Y force, node 28, N
         84   -6.208E+02                                 F               0         Blade 1 Z force, node 28, N
         85    3.469E+03                                 F               0         Blade 1 X force, node 29, N
         86   -1.453E+02                                 F               0         Blade 1 Y force, node 29, N
         87   -7.477E+02                                 F               0         Blade 1 Z force, node 29, N
         88    2.966E+03                                 F               0         Blade 1 X force, node 30, N
         89   -1.164E+02                                 F               0         Blade 1 Y force, node 30, N
         90   -6.267E+02                                 F               0         Blade 1 Z force, node 30, N
         91    4.310E+03                                 F               0         Blade 1 X force, node 31, N
         92   -1.564E+02                                 F               0         Blade 1 Y force, node 31, N
         93   -8.899E+02                                 F               0         Blade 1 Z force, node 31, N
         94    3.806E+03                                 F               0         Blade 1 X force, node 32, N
         95   -1.272E+02                                 F               0         Blade 1 Y force, node 32, N
         96   -7.683E+02                                 F               0         Blade 1 Z force, node 32, N
         97    3.917E+03                                 F               0         Blade 1 X force, node 33, N
         98   -1.210E+02                                 F               0         Blade 1 Y force, node 33, N
         99   -7.746E+02                                 F               0         Blade 1 Z force, node 33, N
        100    4.029E+03                                 F               0         Blade 1 X force, node 34, N
        101   -1.147E+02                                 F               0         Blade 1 Y force, node 34, N
        102   -7.811E+02                                 F               0         Blade 1 Z force, node 34, N
        103    4.141E+03                                 F               0         Blade 1 X force, node 35, N
        104   -1.084E+02                                 F               0         Blade 1 Y force, node 35, N
        105   -7.874E+02                                 F               0         Blade 1 Z force, node 35, N
        106    4.252E+03                                 F               0         Blade 1 X force, node 36, N
        107   -1.019E+02                                 F               0         Blade 1 Y force, node 36, N
        108   -7.934E+02                                 F               0         Blade 1 Z force, node 36, N
        109    5.106E+03                                 F               0         Blade 1 X force, node 37, N
        110   -1.111E+02                                 F               0         Blade 1 Y force, node 37, N
        111   -9.345E+02                                 F               0         Blade 1 Z force, node 37, N
        112    3.732E+03                                 F               0         Blade 1 X force, node 38, N
        113   -7.338E+01                                 F               0         Blade 1 Y force, node 38, N
        114   -6.704E+02                                 F               0         Blade 1 Z force, node 38, N
        115    4.588E+03                                 F               0         Blade 1 X force, node 39, N
        116   -8.241E+01                                 F               0         Blade 1 Y force, node 39, N
        117   -8.115E+02                                 F               0         Blade 1 Z force, node 39, N
        118    3.922E+03                                 F               0         Blade 1 X force, node 40, N
        119   -6.407E+01                                 F               0         Blade 1 Y force, node 40, N
        120   -6.835E+02                                 F               0         Blade 1 Z force, node 40, N
        121    5.588E+03                                 F               0         Blade 1 X force, node 41, N
        122   -8.099E+01                                 F               0         Blade 1 Y force, node 41, N
        123   -9.571E+02                                 F               0         Blade 1 Z force, node 41, N
        124    4.921E+03                                 F               0         Blade 1 X force, node 42, N
        125   -6.244E+01                                 F               0         Blade 1 Y force, node 42, N
        126   -8.285E+02                                 F               0         Blade 1 Z force, node 42, N
        127    5.031E+03                                 F               0         Blade 1 X force, node 43, N
        128   -5.565E+01                                 F               0         Blade 1 Y force, node 43, N
        129   -8.338E+02                                 F               0         Blade 1 Z force, node 43, N
        130    5.168E+03                                 F               0         Blade 1 X force, node 44, N
        131   -4.909E+01                                 F               0         Blade 1 Y force, node 44, N
        132   -8.435E+02                                 F               0         Blade 1 Z force, node 44, N
        133    5.224E+03                                 F               0         Blade 1 X force, node 45, N
        134   -4.175E+01                                 F               0         Blade 1 Y force, node 45, N
        135   -8.399E+02                                 F               0         Blade 1 Z force, node 45, N
        136    5.361E+03                                 F               0         Blade 1 X force, node 46, N
        137   -3.513E+01                                 F               0         Blade 1 Y force, node 46, N
        138   -8.495E+02                                 F               0         Blade 1 Z force, node 46, N
        139    6.432E+03                                 F               0         Blade 1 X force, node 47, N
        140   -3.264E+01                                 F               0         Blade 1 Y force, node 47, N
        141   -1.004E+03                                 F               0         Blade 1 Z force, node 47, N
        142    4.620E+03                                 F               0         Blade 1 X force, node 48, N
        143   -1.695E+01                                 F               0         Blade 1 Y force, node 48, N
        144   -7.106E+02                                 F               0         Blade 1 Z force, node 48, N
        145    5.690E+03                                 F               0         Blade 1 X force, node 49, N
        146   -1.435E+01                                 F               0         Blade 1 Y force, node 49, N
        147   -8.646E+02                                 F               0         Blade 1 Z force, node 49, N
        148    4.876E+03                                 F               0         Blade 1 X force, node 50, N
        149   -6.832E+00                                 F               0         Blade 1 Y force, node 50, N
        150   -7.321E+02                                 F               0         Blade 1 Z force, node 50, N
        151    6.833E+03                                 F               0         Blade 1 X force, node 51, N
        152   -9.502E-01                                 F               0         Blade 1 Y force, node 51, N
        153   -1.012E+03                                 F               0         Blade 1 Z force, node 51, N
        154    6.020E+03                                 F               0         Blade 1 X force, node 52, N
        155    6.560E+00                                 F               0         Blade 1 Y force, node 52, N
        156   -8.796E+02                                 F               0         Blade 1 Z force, node 52, N
        157    6.131E+03                                 F               0         Blade 1 X force, node 53, N
        158    1.352E+01                                 F               0         Blade 1 Y force, node 53, N
        159   -8.847E+02                                 F               0         Blade 1 Z force, node 53, N
        160    6.311E+03                                 F               0         Blade 1 X force, node 54, N
        161    2.075E+01                                 F               0         Blade 1 Y force, node 54, N
        162   -8.996E+02                                 F               0         Blade 1 Z force, node 54, N
        163    6.283E+03                                 F               0         Blade 1 X force, node 55, N
        164    2.729E+01                                 F               0         Blade 1 Y force, node 55, N
        165   -8.850E+02                                 F               0         Blade 1 Z force, node 55, N
        166    6.462E+03                                 F               0         Blade 1 X force, node 56, N
        167    3.458E+01                                 F               0         Blade 1 Y force, node 56, N
        168   -8.996E+02                                 F               0         Blade 1 Z force, node 56, N
        169    7.762E+03                                 F               0         Blade 1 X force, node 57, N
        170    4.969E+01                                 F               0         Blade 1 Y force, node 57, N
        171   -1.067E+03                                 F               0         Blade 1 Z force, node 57, N
        172    5.492E+03                                 F               0         Blade 1 X force, node 58, N
        173    4.066E+01                                 F               0         Blade 1 Y force, node 58, N
        174   -7.464E+02                                 F               0         Blade 1 Z force, node 58, N
        175    6.792E+03                                 F               0         Blade 1 X force, node 59, N
        176    5.581E+01                                 F               0         Blade 1 Y force, node 59, N
        177   -9.141E+02                                 F               0         Blade 1 Z force, node 59, N
        178    5.845E+03                                 F               0         Blade 1 X force, node 60, N
        179    5.275E+01                                 F               0         Blade 1 Y force, node 60, N
        180   -7.790E+02                                 F               0         Blade 1 Z force, node 60, N
        181    8.069E+03                                 F               0         Blade 1 X force, node 61, N
        182    8.019E+01                                 F               0         Blade 1 Y force, node 61, N
        183   -1.064E+03                                 F               0         Blade 1 Z force, node 61, N
        184    7.119E+03                                 F               0         Blade 1 X force, node 62, N
        185    7.722E+01                                 F               0         Blade 1 Y force, node 62, N
        186   -9.279E+02                                 F               0         Blade 1 Z force, node 62, N
        187    7.227E+03                                 F               0         Blade 1 X force, node 63, N
        188    8.440E+01                                 F               0         Blade 1 Y force, node 63, N
        189   -9.322E+02                                 F               0         Blade 1 Z force, node 63, N
        190    7.458E+03                                 F               0         Blade 1 X force, node 64, N
        191    9.315E+01                                 F               0         Blade 1 Y force, node 64, N
        192   -9.523E+02                                 F               0         Blade 1 Z force, node 64, N
        193    7.323E+03                                 F               0         Blade 1 X force, node 65, N
        194    9.716E+01                                 F               0         Blade 1 Y force, node 65, N
        195   -9.258E+02                                 F               0         Blade 1 Z force, node 65, N
        196    7.557E+03                                 F               0         Blade 1 X force, node 66, N
        197    1.059E+02                                 F               0         Blade 1 Y force, node 66, N
        198   -9.463E+02                                 F               0         Blade 1 Z force, node 66, N
        199    9.097E+03                                 F               0         Blade 1 X force, node 67, N
        200    1.345E+02                                 F               0         Blade 1 Y force, node 67, N
        201   -1.128E+03                                 F               0         Blade 1 Z force, node 67, N
        202    6.349E+03                                 F               0         Blade 1 X force, node 68, N
        203    9.867E+01                                 F               0         Blade 1 Y force, node 68, N
        204   -7.794E+02                                 F               0         Blade 1 Z force, node 68, N
        205    7.887E+03                                 F               0         Blade 1 X force, node 69, N
        206    1.274E+02                                 F               0         Blade 1 Y force, node 69, N
        207   -9.603E+02                                 F               0         Blade 1 Z force, node 69, N
        208    6.819E+03                                 F               0         Blade 1 X force, node 70, N
        209    1.144E+02                                 F               0         Blade 1 Y force, node 70, N
        210   -8.235E+02                                 F               0         Blade 1 Z force, node 70, N
        211    9.281E+03                                 F               0         Blade 1 X force, node 71, N
        212    1.622E+02                                 F               0         Blade 1 Y force, node 71, N
        213   -1.110E+03                                 F               0         Blade 1 Z force, node 71, N
        214    8.209E+03                                 F               0         Blade 1 X force, node 72, N
        215    1.493E+02                                 F               0         Blade 1 Y force, node 72, N
        216   -9.726E+02                                 F               0         Blade 1 Z force, node 72, N
        217    8.314E+03                                 F               0         Blade 1 X force, node 73, N