
Linearized model: Predictions were generated on 13-Feb-2024 at 11:29:37 using OpenFAST, compiled as a 64-bit application using single precision at commit v3.5.1
 linked with  NWTC Subroutine Library; ElastoDyn; InflowWind; AeroDyn; ServoDyn; HydroDyn; MAP++ (<1.20.10>, <Oct-20-2023>)

Description from the FAST input file: CCT-9 Campign 4 model. Input files to be run with OpenFAST 3.5.0. GitHub branch from Lu Wang (https://github.com/luwang00/openfast/tree/dev) compiled on March 7, 2023.

Simulation information:
   Simulation time:                  1217.2250 s
   Rotor Speed:                         0.7917 rad/s
   Azimuth:                             5.0668 rad
   Wind Speed:                         16.0000 m/s
   Number of continuous states:         0
   Number of discrete states:           0
   Number of constraint states:         0
   Number of inputs:                  303
   Number of outputs:                   1
   Jacobians included in this file?    No

Order of inputs:
     Column   Operating Point                                                   Rotating Frame? Derivative Order Description
   ---------- ---------------                                                   --------------- ---------------- -----------
          1    -1.08005075455E+001                                                     F               0         X-component position of node 1 (hub), m
          2     0.00000000000E+000                                                     F               0         Y-component position of node 1 (hub), m
          3     1.49740173340E+002                                                     F               0         Z-component position of node 1 (hub), m
          4     1.51368045807E+001                                                     F               0         X-component position of node 2 (blade 1, node 1), m
          5    -3.25692510605E+000                                                     F               0         Y-component position of node 2 (blade 1, node 1), m
          6     1.51798828125E+002                                                     F               0         Z-component position of node 2 (blade 1, node 1), m
          7     1.52395744324E+001                                                     F               0         X-component position of node 3 (blade 1, node 2), m
          8    -2.03011941910E+000                                                     F               0         Y-component position of node 3 (blade 1, node 2), m
          9     1.52314926147E+002                                                     F               0         Z-component position of node 3 (blade 1, node 2), m
         10     1.66370716095E+001                                                     F               0         X-component position of node 4 (blade 1, node 3), m
         11     1.46523113251E+001                                                     F               0         Y-component position of node 4 (blade 1, node 3), m
         12     1.59333007812E+002                                                     F               0         Z-component position of node 4 (blade 1, node 3), m
         13     1.69348182678E+001                                                     F               0         X-component position of node 5 (blade 1, node 4), m
         14     1.82066001892E+001                                                     F               0         Y-component position of node 5 (blade 1, node 4), m
         15     1.60828247070E+002                                                     F               0         Z-component position of node 5 (blade 1, node 4), m
         16     1.72326202393E+001                                                     F               0         X-component position of node 6 (blade 1, node 5), m
         17     2.17615680695E+001                                                     F               0         Y-component position of node 6 (blade 1, node 5), m
         18     1.62323776245E+002                                                     F               0         Z-component position of node 6 (blade 1, node 5), m
         19     1.75303668976E+001                                                     F               0         X-component position of node 7 (blade 1, node 6), m
         20     2.53158721924E+001                                                     F               0         Y-component position of node 7 (blade 1, node 6), m
         21     1.63819030762E+002                                                     F               0         Z-component position of node 7 (blade 1, node 6), m
         22     1.78281135559E+001                                                     F               0         X-component position of node 8 (blade 1, node 7), m
         23     2.88701877594E+001                                                     F               0         Y-component position of node 8 (blade 1, node 7), m
         24     1.65314285278E+002                                                     F               0         Z-component position of node 8 (blade 1, node 7), m
         25     1.81259155273E+001                                                     F               0         X-component position of node 9 (blade 1, node 8), m
         26     3.24251403809E+001                                                     F               0         Y-component position of node 9 (blade 1, node 8), m
         27     1.66809799194E+002                                                     F               0         Z-component position of node 9 (blade 1, node 8), m
         28     1.84236621857E+001                                                     F               0         X-component position of node 10 (blade 1, node 9), m
         29     3.59794578552E+001                                                     F               0         Y-component position of node 10 (blade 1, node 9), m
         30     1.68305053711E+002                                                     F               0         Z-component position of node 10 (blade 1, node 9), m
         31     1.87214088440E+001                                                     F               0         X-component position of node 11 (blade 1, node 10), m
         32     3.95337638855E+001                                                     F               0         Y-component position of node 11 (blade 1, node 10), m
         33     1.69800308228E+002                                                     F               0         Z-component position of node 11 (blade 1, node 10), m
         34     1.90191555023E+001                                                     F               0         X-component position of node 12 (blade 1, node 11), m
         35     4.30880813599E+001                                                     F               0         Y-component position of node 12 (blade 1, node 11), m
         36     1.71295562744E+002                                                     F               0         Z-component position of node 12 (blade 1, node 11), m
         37     1.93169574738E+001                                                     F               0         X-component position of node 13 (blade 1, node 12), m
         38     4.66430206299E+001                                                     F               0         Y-component position of node 13 (blade 1, node 12), m
         39     1.72791076660E+002                                                     F               0         Z-component position of node 13 (blade 1, node 12), m
         40     1.96147041321E+001                                                     F               0         X-component position of node 14 (blade 1, node 13), m
         41     5.01973381042E+001                                                     F               0         Y-component position of node 14 (blade 1, node 13), m
         42     1.74286331177E+002                                                     F               0         Z-component position of node 14 (blade 1, node 13), m
         43     1.99124507904E+001                                                     F               0         X-component position of node 15 (blade 1, node 14), m
         44     5.37516441345E+001                                                     F               0         Y-component position of node 15 (blade 1, node 14), m
         45     1.75781570435E+002                                                     F               0         Z-component position of node 15 (blade 1, node 14), m
         46     2.02102508545E+001                                                     F               0         X-component position of node 16 (blade 1, node 15), m
         47     5.73066024780E+001                                                     F               0         Y-component position of node 16 (blade 1, node 15), m
         48     1.77277099609E+002                                                     F               0         Z-component position of node 16 (blade 1, node 15), m
         49     2.05079994202E+001                                                     F               0         X-component position of node 17 (blade 1, node 16), m
         50     6.08609123230E+001                                                     F               0         Y-component position of node 17 (blade 1, node 16), m
         51     1.78772354126E+002                                                     F               0         Z-component position of node 17 (blade 1, node 16), m
         52     2.08057460785E+001                                                     F               0         X-component position of node 18 (blade 1, node 17), m
         53     6.44152374268E+001                                                     F               0         Y-component position of node 18 (blade 1, node 17), m
         54     1.80267608643E+002                                                     F               0         Z-component position of node 18 (blade 1, node 17), m
         55     2.11034927368E+001                                                     F               0         X-component position of node 19 (blade 1, node 18), m
         56     6.79695434570E+001                                                     F               0         Y-component position of node 19 (blade 1, node 18), m
         57     1.81762863159E+002                                                     F               0         Z-component position of node 19 (blade 1, node 18), m
         58     2.14012928009E+001                                                     F               0         X-component position of node 20 (blade 1, node 19), m
         59     7.15244827271E+001                                                     F               0         Y-component position of node 20 (blade 1, node 19), m
         60     1.83258377075E+002                                                     F               0         Z-component position of node 20 (blade 1, node 19), m
         61     2.16990394592E+001                                                     F               0         X-component position of node 21 (blade 1, node 20), m
         62     7.50787963867E+001                                                     F               0         Y-component position of node 21 (blade 1, node 20), m
         63     1.84753631592E+002                                                     F               0         Z-component position of node 21 (blade 1, node 20), m
         64     2.19967880249E+001                                                     F               0         X-component position of node 22 (blade 1, node 21), m
         65     7.86331100464E+001                                                     F               0         Y-component position of node 22 (blade 1, node 21), m
         66     1.86248870850E+002                                                     F               0         Z-component position of node 22 (blade 1, node 21), m
         67     2.22945880890E+001                                                     F               0         X-component position of node 23 (blade 1, node 22), m
         68     8.21880645752E+001                                                     F               0         Y-component position of node 23 (blade 1, node 22), m
         69     1.87744400024E+002                                                     F               0         Z-component position of node 23 (blade 1, node 22), m
         70     2.25923347473E+001                                                     F               0         X-component position of node 24 (blade 1, node 23), m
         71     8.57423782349E+001                                                     F               0         Y-component position of node 24 (blade 1, node 23), m
         72     1.89239654541E+002                                                     F               0         Z-component position of node 24 (blade 1, node 23), m
         73     2.28900833130E+001                                                     F               0         X-component position of node 25 (blade 1, node 24), m
         74     8.92966918945E+001                                                     F               0         Y-component position of node 25 (blade 1, node 24), m
         75     1.90734909058E+002                                                     F               0         Z-component position of node 25 (blade 1, node 24), m
         76     2.31878299713E+001                                                     F               0         X-component position of node 26 (blade 1, node 25), m
         77     9.28509979248E+001                                                     F               0         Y-component position of node 26 (blade 1, node 25), m
         78     1.92230148315E+002                                                     F               0         Z-component position of node 26 (blade 1, node 25), m
         79     2.34856319427E+001                                                     F               0         X-component position of node 27 (blade 1, node 26), m
         80     9.64059524536E+001                                                     F               0         Y-component position of node 27 (blade 1, node 26), m
         81     1.93725677490E+002                                                     F               0         Z-component position of node 27 (blade 1, node 26), m
         82     2.37833766937E+001                                                     F               0         X-component position of node 28 (blade 1, node 27), m
         83     9.99602584839E+001                                                     F               0         Y-component position of node 28 (blade 1, node 27), m
         84     1.95220932007E+002                                                     F               0         Z-component position of node 28 (blade 1, node 27), m
         85     2.40358028412E+001                                                     F               0         X-component position of node 29 (blade 1, node 28), m
         86     1.02973556519E+002                                                     F               0         Y-component position of node 29 (blade 1, node 28), m
         87     1.96488586426E+002                                                     F               0         Z-component position of node 29 (blade 1, node 28), m
         88     1.54624423981E+001                                                     F               0         X-component position of node 30 (blade 2, node 1), m
         89    -1.27848510742E+001                                                     F               0         Y-component position of node 30 (blade 2, node 1), m
         90     1.52888504028E+002                                                     F               0         Z-component position of node 30 (blade 2, node 1), m
         91     1.56436767578E+001                                                     F               0         X-component position of node 31 (blade 2, node 2), m
         92    -1.38538646698E+001                                                     F               0         Y-component position of node 31 (blade 2, node 2), m
         93     1.53667160034E+002                                                     F               0         Z-component position of node 31 (blade 2, node 2), m
         94     1.81081619263E+001                                                     F               0         X-component position of node 32 (blade 2, node 3), m
         95    -2.83907165527E+001                                                     F               0         Y-component position of node 32 (blade 2, node 3), m
         96     1.64255661011E+002                                                     F               0         Z-component position of node 32 (blade 2, node 3), m
         97     1.86332378387E+001                                                     F               0         X-component position of node 33 (blade 2, node 4), m
         98    -3.14878978729E+001                                                     F               0         Y-component position of node 33 (blade 2, node 4), m
         99     1.66511611938E+002                                                     F               0         Z-component position of node 33 (blade 2, node 4), m
        100     1.91584110260E+001                                                     F               0         X-component position of node 34 (blade 2, node 5), m
        101    -3.45856323242E+001                                                     F               0         Y-component position of node 34 (blade 2, node 5), m
        102     1.68767974854E+002                                                     F               0         Z-component position of node 34 (blade 2, node 5), m
        103     1.96834888458E+001                                                     F               0         X-component position of node 35 (blade 2, node 6), m
        104    -3.76828117371E+001                                                     F               0         Y-component position of node 35 (blade 2, node 6), m
        105     1.71023925781E+002                                                     F               0         Z-component position of node 35 (blade 2, node 6), m
        106     2.02085647583E+001                                                     F               0         X-component position of node 36 (blade 2, node 7), m
        107    -4.07799949646E+001                                                     F               0         Y-component position of node 36 (blade 2, node 7), m
        108     1.73279876709E+002                                                     F               0         Z-component position of node 36 (blade 2, node 7), m
        109     2.07337360382E+001                                                     F               0         X-component position of node 37 (blade 2, node 8), m
        110    -4.38777275085E+001                                                     F               0         Y-component position of node 37 (blade 2, node 8), m
        111     1.75536239624E+002                                                     F               0         Z-component position of node 37 (blade 2, node 8), m
        112     2.12588119507E+001                                                     F               0         X-component position of node 38 (blade 2, node 9), m
        113    -4.69749069214E+001                                                     F               0         Y-component position of node 38 (blade 2, node 9), m
        114     1.77792205811E+002                                                     F               0         Z-component position of node 38 (blade 2, node 9), m
        115     2.17838897705E+001                                                     F               0         X-component position of node 39 (blade 2, node 10), m
        116    -5.00720825195E+001                                                     F               0         Y-component position of node 39 (blade 2, node 10), m
        117     1.80048156738E+002                                                     F               0         Z-component position of node 39 (blade 2, node 10), m
        118     2.23089675903E+001                                                     F               0         X-component position of node 40 (blade 2, node 11), m
        119    -5.31692695618E+001                                                     F               0         Y-component position of node 40 (blade 2, node 11), m
        120     1.82304107666E+002                                                     F               0         Z-component position of node 40 (blade 2, node 11), m
        121     2.28341388702E+001                                                     F               0         X-component position of node 41 (blade 2, node 12), m
        122    -5.62670021057E+001                                                     F               0         Y-component position of node 41 (blade 2, node 12), m
        123     1.84560485840E+002                                                     F               0         Z-component position of node 41 (blade 2, node 12), m
        124     2.33592147827E+001                                                     F               0         X-component position of node 42 (blade 2, node 13), m
        125    -5.93641815186E+001                                                     F               0         Y-component position of node 42 (blade 2, node 13), m
        126     1.86816436768E+002                                                     F               0         Z-component position of node 42 (blade 2, node 13), m
        127     2.38842926025E+001                                                     F               0         X-component position of node 43 (blade 2, node 14), m
        128    -6.24613571167E+001                                                     F               0         Y-component position of node 43 (blade 2, node 14), m
        129     1.89072387695E+002                                                     F               0         Z-component position of node 43 (blade 2, node 14), m
        130     2.44094638824E+001                                                     F               0         X-component position of node 44 (blade 2, node 15), m
        131    -6.55591049194E+001                                                     F               0         Y-component position of node 44 (blade 2, node 15), m
        132     1.91328750610E+002                                                     F               0         Z-component position of node 44 (blade 2, node 15), m
        133     2.49345397949E+001                                                     F               0         X-component position of node 45 (blade 2, node 16), m
        134    -6.86562805176E+001                                                     F               0         Y-component position of node 45 (blade 2, node 16), m
        135     1.93584701538E+002                                                     F               0         Z-component position of node 45 (blade 2, node 16), m
        136     2.54596157074E+001                                                     F               0         X-component position of node 46 (blade 2, node 17), m
        137    -7.17534637451E+001                                                     F               0         Y-component position of node 46 (blade 2, node 17), m
        138     1.95840652466E+002                                                     F               0         Z-component position of node 46 (blade 2, node 17), m
        139     2.59846916199E+001                                                     F               0         X-component position of node 47 (blade 2, node 18), m
        140    -7.48506393433E+001                                                     F               0         Y-component position of node 47 (blade 2, node 18), m
        141     1.98096603394E+002                                                     F               0         Z-component position of node 47 (blade 2, node 18), m
        142     2.65098648071E+001                                                     F               0         X-component position of node 48 (blade 2, node 19), m
        143    -7.79483718872E+001                                                     F               0         Y-component position of node 48 (blade 2, node 19), m
        144     2.00352981567E+002                                                     F               0         Z-component position of node 48 (blade 2, node 19), m
        145     2.70349426270E+001                                                     F               0         X-component position of node 49 (blade 2, node 20), m
        146    -8.10455551147E+001                                                     F               0         Y-component position of node 49 (blade 2, node 20), m
        147     2.02608932495E+002                                                     F               0         Z-component position of node 49 (blade 2, node 20), m
        148     2.75600204468E+001                                                     F               0         X-component position of node 50 (blade 2, node 21), m
        149    -8.41427307129E+001                                                     F               0         Y-component position of node 50 (blade 2, node 21), m
        150     2.04864898682E+002                                                     F               0         Z-component position of node 50 (blade 2, node 21), m
        151     2.80851917267E+001                                                     F               0         X-component position of node 51 (blade 2, node 22), m
        152    -8.72404708862E+001                                                     F               0         Y-component position of node 51 (blade 2, node 22), m
        153     2.07121246338E+002                                                     F               0         Z-component position of node 51 (blade 2, node 22), m
        154     2.86102657318E+001                                                     F               0         X-component position of node 52 (blade 2, node 23), m
        155    -9.03376541138E+001                                                     F               0         Y-component position of node 52 (blade 2, node 23), m
        156     2.09377197266E+002                                                     F               0         Z-component position of node 52 (blade 2, node 23), m
        157     2.91353435516E+001                                                     F               0         X-component position of node 53 (blade 2, node 24), m
        158    -9.34348373413E+001                                                     F               0         Y-component position of node 53 (blade 2, node 24), m
        159     2.11633163452E+002                                                     F               0         Z-component position of node 53 (blade 2, node 24), m
        160     2.96604194641E+001                                                     F               0         X-component position of node 54 (blade 2, node 25), m
        161    -9.65320129395E+001                                                     F               0         Y-component position of node 54 (blade 2, node 25), m
        162     2.13889114380E+002                                                     F               0         Z-component position of node 54 (blade 2, node 25), m
        163     3.01855907440E+001                                                     F               0         X-component position of node 55 (blade 2, node 26), m
        164    -9.96297607422E+001                                                     F               0         Y-component position of node 55 (blade 2, node 26), m
        165     2.16145477295E+002                                                     F               0         Z-component position of node 55 (blade 2, node 26), m
        166     3.07106685638E+001                                                     F               0         X-component position of node 56 (blade 2, node 27), m
        167    -1.02726936340E+002                                                     F               0         Y-component position of node 56 (blade 2, node 27), m
        168     2.18401428223E+002                                                     F               0         Z-component position of node 56 (blade 2, node 27), m
        169     3.11558189392E+001                                                     F               0         X-component position of node 57 (blade 2, node 28), m
        170    -1.05352668762E+002                                                     F               0         Y-component position of node 57 (blade 2, node 28), m
        171     2.20313995361E+002                                                     F               0         Z-component position of node 57 (blade 2, node 28), m
        172     1.35316429138E+001                                                     F               0         X-component position of node 58 (blade 3, node 1), m