
Linearized model: Predictions were generated on 31-Jan-2024 at 12:35:17 using OpenFAST, compiled as a 64-bit application using single precision at commit v3.5.1
 linked with  NWTC Subroutine Library; ElastoDyn; InflowWind; AeroDyn; ServoDyn; HydroDyn; MAP++ (<1.20.10>, <Oct-20-2023>)

Description from the FAST input file: CCT-9 Campign 4 model. Input files to be run with OpenFAST 3.5.0. GitHub branch from Lu Wang (https://github.com/luwang00/openfast/tree/dev) compiled on March 7, 2023.

Simulation information:
   Simulation time:                   500.2500 s
   Rotor Speed:                         0.8935 rad/s
   Azimuth:                             0.9697 rad
   Wind Speed:                         10.0000 m/s
   Number of continuous states:         0
   Number of discrete states:           0
   Number of constraint states:         0
   Number of inputs:                 1746
   Number of outputs:                   4
   Jacobians included in this file?    No

Order of inputs:
     Column   Operating Point                     Rotating Frame? Derivative Order Description
   ---------- ---------------                     --------------- ---------------- -----------
          1    8.516E+00                                 F               0         Tower X translation displacement, node 1, m
          2   -1.355E+00                                 F               0         Tower Y translation displacement, node 1, m
          3   -7.061E-02                                 F               0         Tower Z translation displacement, node 1, m
          4    8.752E+00                                 F               0         Tower X translation displacement, node 2, m
          5   -1.887E+00                                 F               0         Tower Y translation displacement, node 2, m
          6   -8.436E-02                                 F               0         Tower Z translation displacement, node 2, m
          7    9.002E+00                                 F               0         Tower X translation displacement, node 3, m
          8   -2.420E+00                                 F               0         Tower Y translation displacement, node 3, m
          9   -9.838E-02                                 F               0         Tower Z translation displacement, node 3, m
         10    9.262E+00                                 F               0         Tower X translation displacement, node 4, m
         11   -2.952E+00                                 F               0         Tower Y translation displacement, node 4, m
         12   -1.126E-01                                 F               0         Tower Z translation displacement, node 4, m
         13    9.530E+00                                 F               0         Tower X translation displacement, node 5, m
         14   -3.485E+00                                 F               0         Tower Y translation displacement, node 5, m
         15   -1.270E-01                                 F               0         Tower Z translation displacement, node 5, m
         16    9.804E+00                                 F               0         Tower X translation displacement, node 6, m
         17   -4.017E+00                                 F               0         Tower Y translation displacement, node 6, m
         18   -1.415E-01                                 F               0         Tower Z translation displacement, node 6, m
         19    1.008E+01                                 F               0         Tower X translation displacement, node 7, m
         20   -4.549E+00                                 F               0         Tower Y translation displacement, node 7, m
         21   -1.561E-01                                 F               0         Tower Z translation displacement, node 7, m
         22    1.036E+01                                 F               0         Tower X translation displacement, node 8, m
         23   -5.082E+00                                 F               0         Tower Y translation displacement, node 8, m
         24   -1.708E-01                                 F               0         Tower Z translation displacement, node 8, m
         25    1.065E+01                                 F               0         Tower X translation displacement, node 9, m
         26   -5.614E+00                                 F               0         Tower Y translation displacement, node 9, m
         27   -1.855E-01                                 F               0         Tower Z translation displacement, node 9, m
         28    1.093E+01                                 F               0         Tower X translation displacement, node 10, m
         29   -6.146E+00                                 F               0         Tower Y translation displacement, node 10, m
         30   -2.002E-01                                 F               0         Tower Z translation displacement, node 10, m
         31    1.122E+01                                 F               0         Tower X translation displacement, node 11, m
         32   -6.679E+00                                 F               0         Tower Y translation displacement, node 11, m
         33   -2.150E-01                                 F               0         Tower Z translation displacement, node 11, m
         34    9.998E-01,  7.486E-03, -1.841E-02         F               0         Tower X orientation angle, node 1, rad
         35   -6.684E-03,  9.990E-01,  4.325E-02         F               0         Tower Y orientation angle, node 1, rad
         36    1.872E-02, -4.312E-02,  9.989E-01         F               0         Tower Z orientation angle, node 1, rad
         37    9.998E-01,  7.530E-03, -1.943E-02         F               0         Tower X orientation angle, node 2, rad
         38   -6.684E-03,  9.990E-01,  4.325E-02         F               0         Tower Y orientation angle, node 2, rad
         39    1.974E-02, -4.311E-02,  9.989E-01         F               0         Tower Z orientation angle, node 2, rad
         40    9.998E-01,  7.567E-03, -2.031E-02         F               0         Tower X orientation angle, node 3, rad
         41   -6.684E-03,  9.990E-01,  4.325E-02         F               0         Tower Y orientation angle, node 3, rad
         42    2.061E-02, -4.310E-02,  9.989E-01         F               0         Tower Z orientation angle, node 3, rad
         43    9.998E-01,  7.598E-03, -2.103E-02         F               0         Tower X orientation angle, node 4, rad
         44   -6.684E-03,  9.990E-01,  4.325E-02         F               0         Tower Y orientation angle, node 4, rad
         45    2.133E-02, -4.310E-02,  9.988E-01         F               0         Tower Z orientation angle, node 4, rad
         46    9.997E-01,  7.623E-03, -2.159E-02         F               0         Tower X orientation angle, node 5, rad
         47   -6.684E-03,  9.990E-01,  4.325E-02         F               0         Tower Y orientation angle, node 5, rad
         48    2.190E-02, -4.309E-02,  9.988E-01         F               0         Tower Z orientation angle, node 5, rad
         49    9.997E-01,  7.642E-03, -2.203E-02         F               0         Tower X orientation angle, node 6, rad
         50   -6.684E-03,  9.990E-01,  4.325E-02         F               0         Tower Y orientation angle, node 6, rad
         51    2.234E-02, -4.309E-02,  9.988E-01         F               0         Tower Z orientation angle, node 6, rad
         52    9.997E-01,  7.655E-03, -2.233E-02         F               0         Tower X orientation angle, node 7, rad
         53   -6.684E-03,  9.990E-01,  4.325E-02         F               0         Tower Y orientation angle, node 7, rad
         54    2.264E-02, -4.309E-02,  9.988E-01         F               0         Tower Z orientation angle, node 7, rad
         55    9.997E-01,  7.664E-03, -2.254E-02         F               0         Tower X orientation angle, node 8, rad
         56   -6.684E-03,  9.990E-01,  4.325E-02         F               0         Tower Y orientation angle, node 8, rad
         57    2.285E-02, -4.308E-02,  9.988E-01         F               0         Tower Z orientation angle, node 8, rad
         58    9.997E-01,  7.669E-03, -2.267E-02         F               0         Tower X orientation angle, node 9, rad
         59   -6.684E-03,  9.990E-01,  4.325E-02         F               0         Tower Y orientation angle, node 9, rad
         60    2.298E-02, -4.308E-02,  9.988E-01         F               0         Tower Z orientation angle, node 9, rad
         61    9.997E-01,  7.672E-03, -2.274E-02         F               0         Tower X orientation angle, node 10, rad
         62   -6.684E-03,  9.990E-01,  4.325E-02         F               0         Tower Y orientation angle, node 10, rad
         63    2.305E-02, -4.308E-02,  9.988E-01         F               0         Tower Z orientation angle, node 10, rad
         64    9.997E-01,  7.674E-03, -2.277E-02         F               0         Tower X orientation angle, node 11, rad
         65   -6.684E-03,  9.990E-01,  4.325E-02         F               0         Tower Y orientation angle, node 11, rad
         66    2.308E-02, -4.308E-02,  9.988E-01         F               0         Tower Z orientation angle, node 11, rad
         67    9.339E-05                                 F               0         Tower X translation velocity, node 1, m/s
         68   -6.588E-07                                 F               0         Tower Y translation velocity, node 1, m/s
         69    4.577E-04                                 F               0         Tower Z translation velocity, node 1, m/s
         70    9.281E-05                                 F               0         Tower X translation velocity, node 2, m/s
         71   -1.110E-06                                 F               0         Tower Y translation velocity, node 2, m/s
         72    4.577E-04                                 F               0         Tower Z translation velocity, node 2, m/s
         73    9.419E-05                                 F               0         Tower X translation velocity, node 3, m/s
         74   -1.571E-06                                 F               0         Tower Y translation velocity, node 3, m/s
         75    4.577E-04                                 F               0         Tower Z translation velocity, node 3, m/s
         76    9.838E-05                                 F               0         Tower X translation velocity, node 4, m/s
         77   -2.030E-06                                 F               0         Tower Y translation velocity, node 4, m/s
         78    4.576E-04                                 F               0         Tower Z translation velocity, node 4, m/s
         79    1.062E-04                                 F               0         Tower X translation velocity, node 5, m/s
         80   -2.476E-06                                 F               0         Tower Y translation velocity, node 5, m/s
         81    4.574E-04                                 F               0         Tower Z translation velocity, node 5, m/s
         82    1.183E-04                                 F               0         Tower X translation velocity, node 6, m/s
         83   -2.901E-06                                 F               0         Tower Y translation velocity, node 6, m/s
         84    4.571E-04                                 F               0         Tower Z translation velocity, node 6, m/s
         85    1.346E-04                                 F               0         Tower X translation velocity, node 7, m/s
         86   -3.302E-06                                 F               0         Tower Y translation velocity, node 7, m/s
         87    4.567E-04                                 F               0         Tower Z translation velocity, node 7, m/s
         88    1.555E-04                                 F               0         Tower X translation velocity, node 8, m/s
         89   -3.674E-06                                 F               0         Tower Y translation velocity, node 8, m/s
         90    4.562E-04                                 F               0         Tower Z translation velocity, node 8, m/s
         91    1.804E-04                                 F               0         Tower X translation velocity, node 9, m/s
         92   -4.018E-06                                 F               0         Tower Y translation velocity, node 9, m/s
         93    4.556E-04                                 F               0         Tower Z translation velocity, node 9, m/s
         94    2.088E-04                                 F               0         Tower X translation velocity, node 10, m/s
         95   -4.338E-06                                 F               0         Tower Y translation velocity, node 10, m/s
         96    4.550E-04                                 F               0         Tower Z translation velocity, node 10, m/s
         97    2.395E-04                                 F               0         Tower X translation velocity, node 11, m/s
         98   -4.642E-06                                 F               0         Tower Y translation velocity, node 11, m/s
         99    4.542E-04                                 F               0         Tower Z translation velocity, node 11, m/s
        100    1.140E+01                                 F               0         Hub X translation displacement, node 1, m
        101   -7.100E+00                                 F               0         Hub Y translation displacement, node 1, m
        102    2.156E-02                                 F               0         Hub Z translation displacement, node 1, m
        103    9.918E-01,  1.214E-02, -1.270E-01         F               0         Hub X orientation angle, node 1, rad
        104    1.013E-01,  5.303E-01,  8.417E-01         F               0         Hub Y orientation angle, node 1, rad
        105    7.759E-02, -8.477E-01,  5.248E-01         F               0         Hub Z orientation angle, node 1, rad
        106    8.862E-01                                 F               0         Hub X rotation velocity, node 1, rad/s
        107    1.084E-02                                 F               0         Hub Y rotation velocity, node 1, rad/s
        108   -1.135E-01                                 F               0         Hub Z rotation velocity, node 1, rad/s
        109    9.884E-01, -3.603E-03, -1.520E-01         F               0         Blade root 1 X orientation angle, node 1, rad
        110    1.307E-01,  5.304E-01,  8.376E-01         F               0         Blade root 1 Y orientation angle, node 1, rad
        111    7.759E-02, -8.477E-01,  5.248E-01         F               0         Blade root 1 Z orientation angle, node 1, rad
        112    9.909E-01,  4.178E-02, -1.280E-01         F               0         Blade root 2 X orientation angle, node 1, rad
        113    4.595E-02, -9.985E-01,  2.981E-02         F               0         Blade root 2 Y orientation angle, node 1, rad
        114   -1.266E-01, -3.542E-02, -9.913E-01         F               0         Blade root 2 Z orientation angle, node 1, rad
        115    9.949E-01, -1.783E-03, -1.010E-01         F               0         Blade root 3 X orientation angle, node 1, rad
        116   -8.839E-02,  4.691E-01, -8.787E-01         F               0         Blade root 3 Y orientation angle, node 1, rad
        117    4.896E-02,  8.831E-01,  4.666E-01         F               0         Blade root 3 Z orientation angle, node 1, rad
        118    1.125E+01                                 F               0         Blade 1 X translation displacement, node 1, m
        119   -1.180E+01                                 F               0         Blade 1 Y translation displacement, node 1, m
        120   -2.581E+00                                 F               0         Blade 1 Z translation displacement, node 1, m
        121    1.121E+01                                 F               0         Blade 1 X translation displacement, node 2, m
        122   -1.293E+01                                 F               0         Blade 1 Y translation displacement, node 2, m
        123   -3.208E+00                                 F               0         Blade 1 Z translation displacement, node 2, m
        124    1.073E+01                                 F               0         Blade 1 X translation displacement, node 3, m
        125   -2.832E+01                                 F               0         Blade 1 Y translation displacement, node 3, m
        126   -1.174E+01                                 F               0         Blade 1 Z translation displacement, node 3, m
        127    1.062E+01                                 F               0         Blade 1 X translation displacement, node 4, m
        128   -3.159E+01                                 F               0         Blade 1 Y translation displacement, node 4, m
        129   -1.355E+01                                 F               0         Blade 1 Z translation displacement, node 4, m
        130    1.052E+01                                 F               0         Blade 1 X translation displacement, node 5, m
        131   -3.487E+01                                 F               0         Blade 1 Y translation displacement, node 5, m
        132   -1.537E+01                                 F               0         Blade 1 Z translation displacement, node 5, m
        133    1.041E+01                                 F               0         Blade 1 X translation displacement, node 6, m
        134   -3.815E+01                                 F               0         Blade 1 Y translation displacement, node 6, m
        135   -1.719E+01                                 F               0         Blade 1 Z translation displacement, node 6, m
        136    1.031E+01                                 F               0         Blade 1 X translation displacement, node 7, m
        137   -4.143E+01                                 F               0         Blade 1 Y translation displacement, node 7, m
        138   -1.900E+01                                 F               0         Blade 1 Z translation displacement, node 7, m
        139    1.020E+01                                 F               0         Blade 1 X translation displacement, node 8, m
        140   -4.471E+01                                 F               0         Blade 1 Y translation displacement, node 8, m
        141   -2.082E+01                                 F               0         Blade 1 Z translation displacement, node 8, m
        142    1.010E+01                                 F               0         Blade 1 X translation displacement, node 9, m
        143   -4.799E+01                                 F               0         Blade 1 Y translation displacement, node 9, m
        144   -2.264E+01                                 F               0         Blade 1 Z translation displacement, node 9, m
        145    9.996E+00                                 F               0         Blade 1 X translation displacement, node 10, m
        146   -5.127E+01                                 F               0         Blade 1 Y translation displacement, node 10, m
        147   -2.445E+01                                 F               0         Blade 1 Z translation displacement, node 10, m
        148    9.892E+00                                 F               0         Blade 1 X translation displacement, node 11, m
        149   -5.454E+01                                 F               0         Blade 1 Y translation displacement, node 11, m
        150   -2.627E+01                                 F               0         Blade 1 Z translation displacement, node 11, m
        151    9.788E+00                                 F               0         Blade 1 X translation displacement, node 12, m
        152   -5.782E+01                                 F               0         Blade 1 Y translation displacement, node 12, m
        153   -2.809E+01                                 F               0         Blade 1 Z translation displacement, node 12, m
        154    9.684E+00                                 F               0         Blade 1 X translation displacement, node 13, m
        155   -6.110E+01                                 F               0         Blade 1 Y translation displacement, node 13, m
        156   -2.990E+01                                 F               0         Blade 1 Z translation displacement, node 13, m
        157    9.580E+00                                 F               0         Blade 1 X translation displacement, node 14, m
        158   -6.438E+01                                 F               0         Blade 1 Y translation displacement, node 14, m
        159   -3.172E+01                                 F               0         Blade 1 Z translation displacement, node 14, m
        160    9.475E+00                                 F               0         Blade 1 X translation displacement, node 15, m
        161   -6.766E+01                                 F               0         Blade 1 Y translation displacement, node 15, m
        162   -3.354E+01                                 F               0         Blade 1 Z translation displacement, node 15, m
        163    9.371E+00                                 F               0         Blade 1 X translation displacement, node 16, m
        164   -7.094E+01                                 F               0         Blade 1 Y translation displacement, node 16, m
        165   -3.536E+01                                 F               0         Blade 1 Z translation displacement, node 16, m
        166    9.267E+00                                 F               0         Blade 1 X translation displacement, node 17, m
        167   -7.422E+01                                 F               0         Blade 1 Y translation displacement, node 17, m
        168   -3.717E+01                                 F               0         Blade 1 Z translation displacement, node 17, m
        169    9.163E+00                                 F               0         Blade 1 X translation displacement, node 18, m
        170   -7.750E+01                                 F               0         Blade 1 Y translation displacement, node 18, m
        171   -3.899E+01                                 F               0         Blade 1 Z translation displacement, node 18, m
        172    9.059E+00                                 F               0         Blade 1 X translation displacement, node 19, m
        173   -8.077E+01                                 F               0         Blade 1 Y translation displacement, node 19, m
        174   -4.081E+01                                 F               0         Blade 1 Z translation displacement, node 19, m
        175    8.954E+00                                 F               0         Blade 1 X translation displacement, node 20, m
        176   -8.405E+01                                 F               0         Blade 1 Y translation displacement, node 20, m
        177   -4.262E+01                                 F               0         Blade 1 Z translation displacement, node 20, m
        178    8.850E+00                                 F               0         Blade 1 X translation displacement, node 21, m
        179   -8.733E+01                                 F               0         Blade 1 Y translation displacement, node 21, m
        180   -4.444E+01                                 F               0         Blade 1 Z translation displacement, node 21, m
        181    8.746E+00                                 F               0         Blade 1 X translation displacement, node 22, m
        182   -9.061E+01                                 F               0         Blade 1 Y translation displacement, node 22, m
        183   -4.626E+01                                 F               0         Blade 1 Z translation displacement, node 22, m
        184    8.642E+00                                 F               0         Blade 1 X translation displacement, node 23, m
        185   -9.389E+01                                 F               0         Blade 1 Y translation displacement, node 23, m
        186   -4.807E+01                                 F               0         Blade 1 Z translation displacement, node 23, m
        187    8.538E+00                                 F               0         Blade 1 X translation displacement, node 24, m
        188   -9.717E+01                                 F               0         Blade 1 Y translation displacement, node 24, m
        189   -4.989E+01                                 F               0         Blade 1 Z translation displacement, node 24, m
        190    8.434E+00                                 F               0         Blade 1 X translation displacement, node 25, m
        191   -1.004E+02                                 F               0         Blade 1 Y translation displacement, node 25, m
        192   -5.171E+01                                 F               0         Blade 1 Z translation displacement, node 25, m
        193    8.329E+00                                 F               0         Blade 1 X translation displacement, node 26, m
        194   -1.037E+02                                 F               0         Blade 1 Y translation displacement, node 26, m
        195   -5.352E+01                                 F               0         Blade 1 Z translation displacement, node 26, m
        196    8.225E+00                                 F               0         Blade 1 X translation displacement, node 27, m
        197   -1.070E+02                                 F               0         Blade 1 Y translation displacement, node 27, m
        198   -5.534E+01                                 F               0         Blade 1 Z translation displacement, node 27, m
        199    8.137E+00                                 F               0         Blade 1 X translation displacement, node 28, m
        200   -1.098E+02                                 F               0         Blade 1 Y translation displacement, node 28, m
        201   -5.688E+01                                 F               0         Blade 1 Z translation displacement, node 28, m
        202    8.200E-01, -2.451E-01, -5.172E-01         F               0         Blade 1 X orientation angle, node 1, rad
        203    5.670E-01,  4.704E-01,  6.761E-01         F               0         Blade 1 Y orientation angle, node 1, rad
        204    7.759E-02, -8.477E-01,  5.248E-01         F               0         Blade 1 Z orientation angle, node 1, rad
        205    8.200E-01, -2.451E-01, -5.172E-01         F               0         Blade 1 X orientation angle, node 2, rad
        206    5.670E-01,  4.704E-01,  6.761E-01         F               0         Blade 1 Y orientation angle, node 2, rad
        207    7.759E-02, -8.477E-01,  5.248E-01         F               0         Blade 1 Z orientation angle, node 2, rad
        208    9.311E-01, -1.266E-01, -3.422E-01         F               0         Blade 1 X orientation angle, node 3, rad
        209    3.565E-01,  5.151E-01,  7.794E-01         F               0         Blade 1 Y orientation angle, node 3, rad
        210    7.759E-02, -8.477E-01,  5.248E-01         F               0         Blade 1 Z orientation angle, node 3, rad
        211    9.453E-01, -1.048E-01, -3.090E-01         F               0         Blade 1 X orientation angle, node 4, rad
        212    3.169E-01,  5.200E-01,  7.932E-01         F               0         Blade 1 Y orientation angle, node 4, rad
        213    7.759E-02, -8.477E-01,  5.248E-01         F               0         Blade 1 Z orientation angle, node 4, rad
        214    9.553E-01, -8.745E-02, -2.825E-01         F               0         Blade 1 X orientation angle, node 5, rad
        215    2.854E-01,  5.232E-01,  8.030E-01         F               0         Blade 1 Y orientation angle, node 5, rad
        216    7.759E-02, -8.477E-01,  5.248E-01         F               0         Blade 1 Z orientation angle, node 5, rad
        217    9.625E-01, -7.354E-02, -2.611E-01         F               0         Blade 1 X orientation angle, node 6, rad
        218    2.599E-01,  5.253E-01,  8.102E-01         F               0         Blade 1 Y orientation angle, node 6, rad
        219    7.759E-02, -8.477E-01,  5.248E-01         F               0         Blade 1 Z orientation angle, node 6, rad
        220    9.679E-01, -6.207E-02, -2.434E-01         F               0         Blade 1 X orientation angle, node 7, rad
        221    2.389E-01,  5.268E-01,  8.157E-01         F               0         Blade 1 Y orientation angle, node 7, rad
        222    7.759E-02, -8.477E-01,  5.248E-01         F               0         Blade 1 Z orientation angle, node 7, rad
        223    9.721E-01, -5.249E-02, -2.285E-01         F               0         Blade 1 X orientation angle, node 8, rad
        224    2.213E-01,  5.279E-01,  8.200E-01         F               0         Blade 1 Y orientation angle, node 8, rad
        225    7.759E-02, -8.477E-01,  5.248E-01         F               0         Blade 1 Z orientation angle, node 8, rad
        226    9.754E-01, -4.438E-02, -2.159E-01         F               0         Blade 1 X orientation angle, node 9, rad
        227    2.063E-01,  5.286E-01,  8.234E-01         F               0         Blade 1 Y orientation angle, node 9, rad