
Linearized model: Predictions were generated on 13-Feb-2024 at 11:29:37 using OpenFAST, compiled as a 64-bit application using single precision at commit v3.5.1
 linked with  NWTC Subroutine Library; ElastoDyn; InflowWind; AeroDyn; ServoDyn; HydroDyn; MAP++ (<1.20.10>, <Oct-20-2023>)

Description from the FAST input file: CCT-9 Campign 4 model. Input files to be run with OpenFAST 3.5.0. GitHub branch from Lu Wang (https://github.com/luwang00/openfast/tree/dev) compiled on March 7, 2023.

Simulation information:
   Simulation time:                  1211.2750 s
   Rotor Speed:                         0.7916 rad/s
   Azimuth:                             0.3563 rad
   Wind Speed:                         16.0000 m/s
   Number of continuous states:         0
   Number of discrete states:           0
   Number of constraint states:         0
   Number of inputs:                   37
   Number of outputs:                   7
   Jacobians included in this file?    No

Order of inputs:
     Column   Operating Point                                                   Rotating Frame? Derivative Order Description
   ---------- ---------------                                                   --------------- ---------------- -----------
          1     8.64535903931E+000                                                     F               0         WAMIT X translation displacement, node 1, m
          2    -6.19755327702E-001                                                     F               0         WAMIT Y translation displacement, node 1, m
          3    -1.30677968264E-001                                                     F               0         WAMIT Z translation displacement, node 1, m
          4     9.93686139584E-001,   3.40240821242E-003,  -1.12144201994E-001         F               0         WAMIT X orientation angle, node 1, rad
          5     2.37739807926E-003,   9.98677134514E-001,   5.13650700450E-002         F               0         WAMIT Y orientation angle, node 1, rad
          6     1.12170614302E-001,  -5.13073690236E-002,   9.92363512516E-001         F               0         WAMIT Z orientation angle, node 1, rad
          7     8.19343840703E-005                                                     F               0         WAMIT X translation velocity, node 1, m/s
          8     4.01350815082E-004                                                     F               0         WAMIT Y translation velocity, node 1, m/s
          9     2.46863765642E-003                                                     F               0         WAMIT Z translation velocity, node 1, m/s
         10    -3.06332512992E-005                                                     F               0         WAMIT X rotation velocity, node 1, rad/s
         11     1.08539588837E-005                                                     F               0         WAMIT Y rotation velocity, node 1, rad/s
         12     2.38134975916E-006                                                     F               0         WAMIT Z rotation velocity, node 1, rad/s
         13    -1.48453600559E-005                                                     F               0         WAMIT X translation acceleration, node 1, m/s^2
         14     7.37135414965E-005                                                     F               0         WAMIT Y translation acceleration, node 1, m/s^2
         15    -2.20613414422E-003                                                     F               0         WAMIT Z translation acceleration, node 1, m/s^2
         16     3.58863030669E-006                                                     F               0         WAMIT X rotation acceleration, node 1, rad/s^2
         17    -6.33123477201E-007                                                     F               0         WAMIT Y rotation acceleration, node 1, rad/s^2
         18     1.49097149915E-005                                                     F               0         WAMIT Z rotation acceleration, node 1, rad/s^2
         19     8.64535903931E+000                                                     F               0         Platform-RefPt X translation displacement, node 1, m
         20    -6.19755327702E-001                                                     F               0         Platform-RefPt Y translation displacement, node 1, m
         21    -1.30677968264E-001                                                     F               0         Platform-RefPt Z translation displacement, node 1, m
         22     9.93686139584E-001,   3.40240821242E-003,  -1.12144201994E-001         F               0         Platform-RefPt X orientation angle, node 1, rad
         23     2.37739807926E-003,   9.98677134514E-001,   5.13650700450E-002         F               0         Platform-RefPt Y orientation angle, node 1, rad
         24     1.12170614302E-001,  -5.13073690236E-002,   9.92363512516E-001         F               0         Platform-RefPt Z orientation angle, node 1, rad
         25     8.19343840703E-005                                                     F               0         Platform-RefPt X translation velocity, node 1, m/s
         26     4.01350815082E-004                                                     F               0         Platform-RefPt Y translation velocity, node 1, m/s
         27     2.46863765642E-003                                                     F               0         Platform-RefPt Z translation velocity, node 1, m/s
         28    -3.06332512992E-005                                                     F               0         Platform-RefPt X rotation velocity, node 1, rad/s
         29     1.08539588837E-005                                                     F               0         Platform-RefPt Y rotation velocity, node 1, rad/s
         30     2.38134975916E-006                                                     F               0         Platform-RefPt Z rotation velocity, node 1, rad/s
         31    -1.48453600559E-005                                                     F               0         Platform-RefPt X translation acceleration, node 1, m/s^2
         32     7.37135414965E-005                                                     F               0         Platform-RefPt Y translation acceleration, node 1, m/s^2
         33    -2.20613414422E-003                                                     F               0         Platform-RefPt Z translation acceleration, node 1, m/s^2
         34     3.58863030669E-006                                                     F               0         Platform-RefPt X rotation acceleration, node 1, rad/s^2
         35    -6.33123477201E-007                                                     F               0         Platform-RefPt Y rotation acceleration, node 1, rad/s^2
         36     1.49097149915E-005                                                     F               0         Platform-RefPt Z rotation acceleration, node 1, rad/s^2
         37     0.00000000000E+000                                                     F               0         Extended input: wave elevation at platform ref point, m

Order of outputs:
        Row   Operating Point                                                   Rotating Frame? Derivative Order Description
   ---------- ---------------                                                   --------------- ---------------- -----------
          1     0.00000000000E+000                                                     F               0         Wave1Elev, (m)
          2    -5.92432812500E+004                                                     F               0         HydroFxi, (N)
          3    -1.10849023438E+003                                                     F               0         HydroFyi, (N)
          4     2.03962784000E+008                                                     F               0         HydroFzi, (N)
          5    -1.10445128000E+008                                                     F               0         HydroMxi, (N-m)
          6    -2.41181392000E+008                                                     F               0         HydroMyi, (N-m)
          7    -2.92101562500E+005                                                     F               0         HydroMzi, (N-m)


Linearized state matrices:

D: 7 x 37
     0.00000000000E+000   0.00000000000E+000   0.00000000000E+000   0.00000000000E+000   0.00000000000E+000   0.00000000000E+000   0.00000000000E+000   0.00000000000E+000   0.00000000000E+000   0.00000000000E+000   0.00000000000E+000   0.00000000000E+000   0.00000000000E+000   0.00000000000E+000   0.00000000000E+000   0.00000000000E+000   0.00000000000E+000   0.00000000000E+000   0.00000000000E+000   0.00000000000E+000   0.00000000000E+000   0.00000000000E+000   0.00000000000E+000   0.00000000000E+000   0.00000000000E+000   0.00000000000E+000   0.00000000000E+000   0.00000000000E+000   0.00000000000E+000   0.00000000000E+000   0.00000000000E+000   0.00000000000E+000   0.00000000000E+000   0.00000000000E+000   0.00000000000E+000   0.00000000000E+000   0.00000000000E+000
    -6.86005090540E+003   0.00000000000E+000   0.00000000000E+000   0.00000000000E+000   0.00000000000E+000   0.00000000000E+000  -2.82173128432E+005   0.00000000000E+000   0.00000000000E+000   0.00000000000E+000   5.59529101142E-002   0.00000000000E+000  -9.38083896931E+006   0.00000000000E+000   1.99671965511E+001   5.59529101142E-002   9.82680351759E+007   0.00000000000E+000   0.00000000000E+000   0.00000000000E+000   0.00000000000E+000   0.00000000000E+000   0.00000000000E+000   0.00000000000E+000   0.00000000000E+000   0.00000000000E+000   0.00000000000E+000   0.00000000000E+000   0.00000000000E+000   0.00000000000E+000   0.00000000000E+000   0.00000000000E+000   0.00000000000E+000   0.00000000000E+000   0.00000000000E+000   0.00000000000E+000   0.00000000000E+000
     0.00000000000E+000   0.00000000000E+000   0.00000000000E+000   0.00000000000E+000   0.00000000000E+000   0.00000000000E+000   0.00000000000E+000  -2.82174375383E+005   0.00000000000E+000   0.00000000000E+000   0.00000000000E+000   0.00000000000E+000   0.00000000000E+000  -9.38088807999E+006   0.00000000000E+000  -9.82662375208E+007   0.00000000000E+000   1.78567767633E+003   0.00000000000E+000   0.00000000000E+000   0.00000000000E+000   0.00000000000E+000   0.00000000000E+000   0.00000000000E+000   0.00000000000E+000   0.00000000000E+000   0.00000000000E+000   0.00000000000E+000   0.00000000000E+000   0.00000000000E+000   0.00000000000E+000   0.00000000000E+000   0.00000000000E+000   0.00000000000E+000   0.00000000000E+000   0.00000000000E+000   0.00000000000E+000
     0.00000000000E+000   0.00000000000E+000  -4.39475022593E+006   0.00000000000E+000   4.58366239655E+003   0.00000000000E+000   0.00000000000E+000   0.00000000000E+000  -8.06593656903E+005   0.00000000000E+000  -2.29183119828E+002   0.00000000000E+000   1.30961788749E+002   0.00000000000E+000  -2.41345551631E+007  -2.29183119828E+002   1.81054664664E+004   0.00000000000E+000   0.00000000000E+000   0.00000000000E+000   0.00000000000E+000   0.00000000000E+000   0.00000000000E+000   0.00000000000E+000   0.00000000000E+000   0.00000000000E+000   0.00000000000E+000   0.00000000000E+000   0.00000000000E+000   0.00000000000E+000   0.00000000000E+000   0.00000000000E+000   0.00000000000E+000   0.00000000000E+000   0.00000000000E+000   0.00000000000E+000   0.00000000000E+000
     0.00000000000E+000   2.03962803697E+008   1.08043475718E+003  -2.13421463291E+009   0.00000000000E+000   8.88084589332E+004   0.00000000000E+000   0.00000000000E+000   0.00000000000E+000  -2.78327566680E+009   0.00000000000E+000   0.00000000000E+000   0.00000000000E+000  -9.82009770033E+007   0.00000000000E+000  -1.13246530020E+010   0.00000000000E+000   5.30558922401E+004   0.00000000000E+000  -2.03962803697E+008  -1.08043475718E+003   0.00000000000E+000   0.00000000000E+000   0.00000000000E+000   0.00000000000E+000   0.00000000000E+000   0.00000000000E+000   0.00000000000E+000   0.00000000000E+000   0.00000000000E+000   0.00000000000E+000   0.00000000000E+000   0.00000000000E+000   0.00000000000E+000   0.00000000000E+000   0.00000000000E+000   0.00000000000E+000
    -2.03962705475E+008   0.00000000000E+000  -5.54623175350E+004   0.00000000000E+000  -2.13398109531E+009   0.00000000000E+000   0.00000000000E+000   0.00000000000E+000   0.00000000000E+000   0.00000000000E+000  -2.78327406252E+009   0.00000000000E+000   9.82037272008E+007   0.00000000000E+000   1.93168638404E+004   0.00000000000E+000  -1.13240534590E+010   0.00000000000E+000   2.03962705475E+008   0.00000000000E+000   5.93256903031E+004   0.00000000000E+000   0.00000000000E+000   0.00000000000E+000   0.00000000000E+000   0.00000000000E+000   0.00000000000E+000   0.00000000000E+000   0.00000000000E+000   0.00000000000E+000   0.00000000000E+000   0.00000000000E+000   0.00000000000E+000   0.00000000000E+000   0.00000000000E+000   0.00000000000E+000   0.00000000000E+000
    -1.10857107898E+003   5.92433276157E+004   0.00000000000E+000   0.00000000000E+000   0.00000000000E+000   0.00000000000E+000   0.00000000000E+000   0.00000000000E+000   0.00000000000E+000   0.00000000000E+000   0.00000000000E+000  -2.51327388742E+009   0.00000000000E+000   1.55376442530E+003   0.00000000000E+000   4.40412069858E+004   0.00000000000E+000  -1.95913504720E+010   1.10857107898E+003  -5.92433276157E+004   0.00000000000E+000   0.00000000000E+000   0.00000000000E+000   0.00000000000E+000   0.00000000000E+000   0.00000000000E+000   0.00000000000E+000   0.00000000000E+000   0.00000000000E+000   0.00000000000E+000   0.00000000000E+000   0.00000000000E+000   0.00000000000E+000   0.00000000000E+000   0.00000000000E+000   0.00000000000E+000   0.00000000000E+000
