
Linearized model: Predictions were generated on 31-Jan-2024 at 12:35:17 using OpenFAST, compiled as a 64-bit application using single precision at commit v3.5.1
 linked with  NWTC Subroutine Library; ElastoDyn; InflowWind; AeroDyn; ServoDyn; HydroDyn; MAP++ (<1.20.10>, <Oct-20-2023>)

Description from the FAST input file: CCT-9 Campign 4 model. Input files to be run with OpenFAST 3.5.0. GitHub branch from Lu Wang (https://github.com/luwang00/openfast/tree/dev) compiled on March 7, 2023.

Simulation information:
   Simulation time:                   503.2250 s
   Rotor Speed:                         0.8939 rad/s
   Azimuth:                             3.6283 rad
   Wind Speed:                         10.0000 m/s
   Number of continuous states:         0
   Number of discrete states:           0
   Number of constraint states:         0
   Number of inputs:                  303
   Number of outputs:                   1
   Jacobians included in this file?    No

Order of inputs:
     Column   Operating Point                     Rotating Frame? Derivative Order Description
   ---------- ---------------                     --------------- ---------------- -----------
          1   -1.080E+01                                 F               0         X-component position of node 1 (hub), m
          2    0.000E+00                                 F               0         Y-component position of node 1 (hub), m
          3    1.497E+02                                 F               0         Z-component position of node 1 (hub), m
          4   -4.518E-02                                 F               0         X-component position of node 2 (blade 1, node 1), m
          5   -4.305E+00                                 F               0         Y-component position of node 2 (blade 1, node 1), m
          6    1.450E+02                                 F               0         Z-component position of node 2 (blade 1, node 1), m
          7   -1.997E-01                                 F               0         X-component position of node 3 (blade 1, node 2), m
          8   -3.632E+00                                 F               0         Y-component position of node 3 (blade 1, node 2), m
          9    1.439E+02                                 F               0         Z-component position of node 3 (blade 1, node 2), m
         10   -2.301E+00                                 F               0         X-component position of node 4 (blade 1, node 3), m
         11    5.526E+00                                 F               0         Y-component position of node 4 (blade 1, node 3), m
         12    1.283E+02                                 F               0         Z-component position of node 4 (blade 1, node 3), m
         13   -2.749E+00                                 F               0         X-component position of node 5 (blade 1, node 4), m
         14    7.477E+00                                 F               0         Y-component position of node 5 (blade 1, node 4), m
         15    1.250E+02                                 F               0         Z-component position of node 5 (blade 1, node 4), m
         16   -3.196E+00                                 F               0         X-component position of node 6 (blade 1, node 5), m
         17    9.428E+00                                 F               0         Y-component position of node 6 (blade 1, node 5), m
         18    1.217E+02                                 F               0         Z-component position of node 6 (blade 1, node 5), m
         19   -3.644E+00                                 F               0         X-component position of node 7 (blade 1, node 6), m
         20    1.138E+01                                 F               0         Y-component position of node 7 (blade 1, node 6), m
         21    1.184E+02                                 F               0         Z-component position of node 7 (blade 1, node 6), m
         22   -4.092E+00                                 F               0         X-component position of node 8 (blade 1, node 7), m
         23    1.333E+01                                 F               0         Y-component position of node 8 (blade 1, node 7), m
         24    1.151E+02                                 F               0         Z-component position of node 8 (blade 1, node 7), m
         25   -4.540E+00                                 F               0         X-component position of node 9 (blade 1, node 8), m
         26    1.528E+01                                 F               0         Y-component position of node 9 (blade 1, node 8), m
         27    1.118E+02                                 F               0         Z-component position of node 9 (blade 1, node 8), m
         28   -4.987E+00                                 F               0         X-component position of node 10 (blade 1, node 9), m
         29    1.723E+01                                 F               0         Y-component position of node 10 (blade 1, node 9), m
         30    1.085E+02                                 F               0         Z-component position of node 10 (blade 1, node 9), m
         31   -5.435E+00                                 F               0         X-component position of node 11 (blade 1, node 10), m
         32    1.918E+01                                 F               0         Y-component position of node 11 (blade 1, node 10), m
         33    1.052E+02                                 F               0         Z-component position of node 11 (blade 1, node 10), m
         34   -5.883E+00                                 F               0         X-component position of node 12 (blade 1, node 11), m
         35    2.113E+01                                 F               0         Y-component position of node 12 (blade 1, node 11), m
         36    1.019E+02                                 F               0         Z-component position of node 12 (blade 1, node 11), m
         37   -6.330E+00                                 F               0         X-component position of node 13 (blade 1, node 12), m
         38    2.309E+01                                 F               0         Y-component position of node 13 (blade 1, node 12), m
         39    9.855E+01                                 F               0         Z-component position of node 13 (blade 1, node 12), m
         40   -6.778E+00                                 F               0         X-component position of node 14 (blade 1, node 13), m
         41    2.504E+01                                 F               0         Y-component position of node 14 (blade 1, node 13), m
         42    9.524E+01                                 F               0         Z-component position of node 14 (blade 1, node 13), m
         43   -7.226E+00                                 F               0         X-component position of node 15 (blade 1, node 14), m
         44    2.699E+01                                 F               0         Y-component position of node 15 (blade 1, node 14), m
         45    9.194E+01                                 F               0         Z-component position of node 15 (blade 1, node 14), m
         46   -7.674E+00                                 F               0         X-component position of node 16 (blade 1, node 15), m
         47    2.894E+01                                 F               0         Y-component position of node 16 (blade 1, node 15), m
         48    8.863E+01                                 F               0         Z-component position of node 16 (blade 1, node 15), m
         49   -8.121E+00                                 F               0         X-component position of node 17 (blade 1, node 16), m
         50    3.089E+01                                 F               0         Y-component position of node 17 (blade 1, node 16), m
         51    8.532E+01                                 F               0         Z-component position of node 17 (blade 1, node 16), m
         52   -8.569E+00                                 F               0         X-component position of node 18 (blade 1, node 17), m
         53    3.284E+01                                 F               0         Y-component position of node 18 (blade 1, node 17), m
         54    8.201E+01                                 F               0         Z-component position of node 18 (blade 1, node 17), m
         55   -9.017E+00                                 F               0         X-component position of node 19 (blade 1, node 18), m
         56    3.479E+01                                 F               0         Y-component position of node 19 (blade 1, node 18), m
         57    7.870E+01                                 F               0         Z-component position of node 19 (blade 1, node 18), m
         58   -9.465E+00                                 F               0         X-component position of node 20 (blade 1, node 19), m
         59    3.674E+01                                 F               0         Y-component position of node 20 (blade 1, node 19), m
         60    7.539E+01                                 F               0         Z-component position of node 20 (blade 1, node 19), m
         61   -9.912E+00                                 F               0         X-component position of node 21 (blade 1, node 20), m
         62    3.869E+01                                 F               0         Y-component position of node 21 (blade 1, node 20), m
         63    7.208E+01                                 F               0         Z-component position of node 21 (blade 1, node 20), m
         64   -1.036E+01                                 F               0         X-component position of node 22 (blade 1, node 21), m
         65    4.065E+01                                 F               0         Y-component position of node 22 (blade 1, node 21), m
         66    6.877E+01                                 F               0         Z-component position of node 22 (blade 1, node 21), m
         67   -1.081E+01                                 F               0         X-component position of node 23 (blade 1, node 22), m
         68    4.260E+01                                 F               0         Y-component position of node 23 (blade 1, node 22), m
         69    6.546E+01                                 F               0         Z-component position of node 23 (blade 1, node 22), m
         70   -1.126E+01                                 F               0         X-component position of node 24 (blade 1, node 23), m
         71    4.455E+01                                 F               0         Y-component position of node 24 (blade 1, node 23), m
         72    6.215E+01                                 F               0         Z-component position of node 24 (blade 1, node 23), m
         73   -1.170E+01                                 F               0         X-component position of node 25 (blade 1, node 24), m
         74    4.650E+01                                 F               0         Y-component position of node 25 (blade 1, node 24), m
         75    5.884E+01                                 F               0         Z-component position of node 25 (blade 1, node 24), m
         76   -1.215E+01                                 F               0         X-component position of node 26 (blade 1, node 25), m
         77    4.845E+01                                 F               0         Y-component position of node 26 (blade 1, node 25), m
         78    5.553E+01                                 F               0         Z-component position of node 26 (blade 1, node 25), m
         79   -1.260E+01                                 F               0         X-component position of node 27 (blade 1, node 26), m
         80    5.040E+01                                 F               0         Y-component position of node 27 (blade 1, node 26), m
         81    5.222E+01                                 F               0         Z-component position of node 27 (blade 1, node 26), m
         82   -1.305E+01                                 F               0         X-component position of node 28 (blade 1, node 27), m
         83    5.235E+01                                 F               0         Y-component position of node 28 (blade 1, node 27), m
         84    4.891E+01                                 F               0         Z-component position of node 28 (blade 1, node 27), m
         85   -1.343E+01                                 F               0         X-component position of node 29 (blade 1, node 28), m
         86    5.401E+01                                 F               0         Y-component position of node 29 (blade 1, node 28), m
         87    4.611E+01                                 F               0         Z-component position of node 29 (blade 1, node 28), m
         88    1.174E+00                                 F               0         X-component position of node 30 (blade 2, node 1), m
         89   -4.355E+00                                 F               0         Y-component position of node 30 (blade 2, node 1), m
         90    1.545E+02                                 F               0         Z-component position of node 30 (blade 2, node 1), m
         91    1.314E+00                                 F               0         X-component position of node 31 (blade 2, node 2), m
         92   -3.694E+00                                 F               0         Y-component position of node 31 (blade 2, node 2), m
         93    1.557E+02                                 F               0         Z-component position of node 31 (blade 2, node 2), m
         94    3.208E+00                                 F               0         X-component position of node 32 (blade 2, node 3), m
         95    5.300E+00                                 F               0         Y-component position of node 32 (blade 2, node 3), m
         96    1.713E+02                                 F               0         Z-component position of node 32 (blade 2, node 3), m
         97    3.612E+00                                 F               0         X-component position of node 33 (blade 2, node 4), m
         98    7.216E+00                                 F               0         Y-component position of node 33 (blade 2, node 4), m
         99    1.747E+02                                 F               0         Z-component position of node 33 (blade 2, node 4), m
        100    4.016E+00                                 F               0         X-component position of node 34 (blade 2, node 5), m
        101    9.133E+00                                 F               0         Y-component position of node 34 (blade 2, node 5), m
        102    1.780E+02                                 F               0         Z-component position of node 34 (blade 2, node 5), m
        103    4.420E+00                                 F               0         X-component position of node 35 (blade 2, node 6), m
        104    1.105E+01                                 F               0         Y-component position of node 35 (blade 2, node 6), m
        105    1.813E+02                                 F               0         Z-component position of node 35 (blade 2, node 6), m
        106    4.823E+00                                 F               0         X-component position of node 36 (blade 2, node 7), m
        107    1.297E+01                                 F               0         Y-component position of node 36 (blade 2, node 7), m
        108    1.847E+02                                 F               0         Z-component position of node 36 (blade 2, node 7), m
        109    5.227E+00                                 F               0         X-component position of node 37 (blade 2, node 8), m
        110    1.488E+01                                 F               0         Y-component position of node 37 (blade 2, node 8), m
        111    1.880E+02                                 F               0         Z-component position of node 37 (blade 2, node 8), m
        112    5.631E+00                                 F               0         X-component position of node 38 (blade 2, node 9), m
        113    1.680E+01                                 F               0         Y-component position of node 38 (blade 2, node 9), m
        114    1.913E+02                                 F               0         Z-component position of node 38 (blade 2, node 9), m
        115    6.034E+00                                 F               0         X-component position of node 39 (blade 2, node 10), m
        116    1.871E+01                                 F               0         Y-component position of node 39 (blade 2, node 10), m
        117    1.947E+02                                 F               0         Z-component position of node 39 (blade 2, node 10), m
        118    6.438E+00                                 F               0         X-component position of node 40 (blade 2, node 11), m
        119    2.063E+01                                 F               0         Y-component position of node 40 (blade 2, node 11), m
        120    1.980E+02                                 F               0         Z-component position of node 40 (blade 2, node 11), m
        121    6.842E+00                                 F               0         X-component position of node 41 (blade 2, node 12), m
        122    2.255E+01                                 F               0         Y-component position of node 41 (blade 2, node 12), m
        123    2.014E+02                                 F               0         Z-component position of node 41 (blade 2, node 12), m
        124    7.246E+00                                 F               0         X-component position of node 42 (blade 2, node 13), m
        125    2.446E+01                                 F               0         Y-component position of node 42 (blade 2, node 13), m
        126    2.047E+02                                 F               0         Z-component position of node 42 (blade 2, node 13), m
        127    7.649E+00                                 F               0         X-component position of node 43 (blade 2, node 14), m
        128    2.638E+01                                 F               0         Y-component position of node 43 (blade 2, node 14), m
        129    2.080E+02                                 F               0         Z-component position of node 43 (blade 2, node 14), m
        130    8.053E+00                                 F               0         X-component position of node 44 (blade 2, node 15), m
        131    2.830E+01                                 F               0         Y-component position of node 44 (blade 2, node 15), m
        132    2.114E+02                                 F               0         Z-component position of node 44 (blade 2, node 15), m
        133    8.457E+00                                 F               0         X-component position of node 45 (blade 2, node 16), m
        134    3.021E+01                                 F               0         Y-component position of node 45 (blade 2, node 16), m
        135    2.147E+02                                 F               0         Z-component position of node 45 (blade 2, node 16), m
        136    8.860E+00                                 F               0         X-component position of node 46 (blade 2, node 17), m
        137    3.213E+01                                 F               0         Y-component position of node 46 (blade 2, node 17), m
        138    2.180E+02                                 F               0         Z-component position of node 46 (blade 2, node 17), m
        139    9.264E+00                                 F               0         X-component position of node 47 (blade 2, node 18), m
        140    3.404E+01                                 F               0         Y-component position of node 47 (blade 2, node 18), m
        141    2.214E+02                                 F               0         Z-component position of node 47 (blade 2, node 18), m
        142    9.668E+00                                 F               0         X-component position of node 48 (blade 2, node 19), m
        143    3.596E+01                                 F               0         Y-component position of node 48 (blade 2, node 19), m
        144    2.247E+02                                 F               0         Z-component position of node 48 (blade 2, node 19), m
        145    1.007E+01                                 F               0         X-component position of node 49 (blade 2, node 20), m
        146    3.788E+01                                 F               0         Y-component position of node 49 (blade 2, node 20), m
        147    2.280E+02                                 F               0         Z-component position of node 49 (blade 2, node 20), m
        148    1.048E+01                                 F               0         X-component position of node 50 (blade 2, node 21), m
        149    3.979E+01                                 F               0         Y-component position of node 50 (blade 2, node 21), m
        150    2.314E+02                                 F               0         Z-component position of node 50 (blade 2, node 21), m
        151    1.088E+01                                 F               0         X-component position of node 51 (blade 2, node 22), m
        152    4.171E+01                                 F               0         Y-component position of node 51 (blade 2, node 22), m
        153    2.347E+02                                 F               0         Z-component position of node 51 (blade 2, node 22), m
        154    1.128E+01                                 F               0         X-component position of node 52 (blade 2, node 23), m
        155    4.363E+01                                 F               0         Y-component position of node 52 (blade 2, node 23), m
        156    2.380E+02                                 F               0         Z-component position of node 52 (blade 2, node 23), m
        157    1.169E+01                                 F               0         X-component position of node 53 (blade 2, node 24), m
        158    4.554E+01                                 F               0         Y-component position of node 53 (blade 2, node 24), m
        159    2.414E+02                                 F               0         Z-component position of node 53 (blade 2, node 24), m
        160    1.209E+01                                 F               0         X-component position of node 54 (blade 2, node 25), m
        161    4.746E+01                                 F               0         Y-component position of node 54 (blade 2, node 25), m
        162    2.447E+02                                 F               0         Z-component position of node 54 (blade 2, node 25), m
        163    1.249E+01                                 F               0         X-component position of node 55 (blade 2, node 26), m
        164    4.937E+01                                 F               0         Y-component position of node 55 (blade 2, node 26), m
        165    2.480E+02                                 F               0         Z-component position of node 55 (blade 2, node 26), m
        166    1.290E+01                                 F               0         X-component position of node 56 (blade 2, node 27), m
        167    5.129E+01                                 F               0         Y-component position of node 56 (blade 2, node 27), m
        168    2.514E+02                                 F               0         Z-component position of node 56 (blade 2, node 27), m
        169    1.324E+01                                 F               0         X-component position of node 57 (blade 2, node 28), m
        170    5.291E+01                                 F               0         Y-component position of node 57 (blade 2, node 28), m
        171    2.542E+02                                 F               0         Z-component position of node 57 (blade 2, node 28), m
        172    6.592E-01                                 F               0         X-component position of node 58 (blade 3, node 1), m
        173   -1.264E+01                                 F               0         Y-component position of node 58 (blade 3, node 1), m
        174    1.497E+02                                 F               0         Z-component position of node 58 (blade 3, node 1), m
        175    6.743E-01                                 F               0         X-component position of node 59 (blade 3, node 2), m
        176   -1.397E+01                                 F               0         Y-component position of node 59 (blade 3, node 2), m
        177    1.497E+02                                 F               0         Z-component position of node 59 (blade 3, node 2), m
        178    8.809E-01                                 F               0         X-component position of node 60 (blade 3, node 3), m
        179   -3.212E+01                                 F               0         Y-component position of node 60 (blade 3, node 3), m
        180    1.496E+02                                 F               0         Z-component position of node 60 (blade 3, node 3), m
        181    9.249E-01                                 F               0         X-component position of node 61 (blade 3, node 4), m
        182   -3.599E+01                                 F               0         Y-component position of node 61 (blade 3, node 4), m
        183    1.496E+02                                 F               0         Z-component position of node 61 (blade 3, node 4), m
        184    9.689E-01                                 F               0         X-component position of node 62 (blade 3, node 5), m
        185   -3.986E+01                                 F               0         Y-component position of node 62 (blade 3, node 5), m
        186    1.495E+02                                 F               0         Z-component position of node 62 (blade 3, node 5), m
        187    1.013E+00                                 F               0         X-component position of node 63 (blade 3, node 6), m
        188   -4.373E+01                                 F               0         Y-component position of node 63 (blade 3, node 6), m
        189    1.495E+02                                 F               0         Z-component position of node 63 (blade 3, node 6), m
        190    1.057E+00                                 F               0         X-component position of node 64 (blade 3, node 7), m
        191   -4.759E+01                                 F               0         Y-component position of node 64 (blade 3, node 7), m
        192    1.495E+02                                 F               0         Z-component position of node 64 (blade 3, node 7), m
        193    1.101E+00                                 F               0         X-component position of node 65 (blade 3, node 8), m
        194   -5.146E+01                                 F               0         Y-component position of node 65 (blade 3, node 8), m
        195    1.495E+02                                 F               0         Z-component position of node 65 (blade 3, node 8), m
        196    1.145E+00                                 F               0         X-component position of node 66 (blade 3, node 9), m
        197   -5.533E+01                                 F               0         Y-component position of node 66 (blade 3, node 9), m
        198    1.494E+02                                 F               0         Z-component position of node 66 (blade 3, node 9), m
        199    1.189E+00                                 F               0         X-component position of node 67 (blade 3, node 10), m
        200   -5.920E+01                                 F               0         Y-component position of node 67 (blade 3, node 10), m
        201    1.494E+02                                 F               0         Z-component position of node 67 (blade 3, node 10), m
        202    1.233E+00                                 F               0         X-component position of node 68 (blade 3, node 11), m
        203   -6.306E+01                                 F               0         Y-component position of node 68 (blade 3, node 11), m
        204    1.494E+02                                 F               0         Z-component position of node 68 (blade 3, node 11), m
        205    1.277E+00                                 F               0         X-component position of node 69 (blade 3, node 12), m
        206   -6.693E+01                                 F               0         Y-component position of node 69 (blade 3, node 12), m
        207    1.494E+02                                 F               0         Z-component position of node 69 (blade 3, node 12), m
        208    1.321E+00                                 F               0         X-component position of node 70 (blade 3, node 13), m
        209   -7.080E+01                                 F               0         Y-component position of node 70 (blade 3, node 13), m
        210    1.493E+02                                 F               0         Z-component position of node 70 (blade 3, node 13), m
        211    1.365E+00                                 F               0         X-component position of node 71 (blade 3, node 14), m