
Linearized model: Predictions were generated on 13-Feb-2024 at 11:29:37 using OpenFAST, compiled as a 64-bit application using single precision at commit v3.5.1
 linked with  NWTC Subroutine Library; ElastoDyn; InflowWind; AeroDyn; ServoDyn; HydroDyn; MAP++ (<1.20.10>, <Oct-20-2023>)

Description from the FAST input file: CCT-9 Campign 4 model. Input files to be run with OpenFAST 3.5.0. GitHub branch from Lu Wang (https://github.com/luwang00/openfast/tree/dev) compiled on March 7, 2023.

Simulation information:
   Simulation time:                  1217.9000 s
   Rotor Speed:                         0.7915 rad/s
   Azimuth:                             5.6010 rad
   Wind Speed:                         16.0000 m/s
   Number of continuous states:         0
   Number of discrete states:           0
   Number of constraint states:         0
   Number of inputs:                   37
   Number of outputs:                   7
   Jacobians included in this file?    No

Order of inputs:
     Column   Operating Point                                                   Rotating Frame? Derivative Order Description
   ---------- ---------------                                                   --------------- ---------------- -----------
          1     8.64512252808E+000                                                     F               0         WAMIT X translation displacement, node 1, m
          2    -6.19499385357E-001                                                     F               0         WAMIT Y translation displacement, node 1, m
          3    -1.55543610454E-001                                                     F               0         WAMIT Z translation displacement, node 1, m
          4     9.93687331676E-001,   3.40465130284E-003,  -1.12133599818E-001         F               0         WAMIT X orientation angle, node 1, rad
          5     2.38536484540E-003,   9.98672187328E-001,   5.14603778720E-002         F               0         WAMIT Y orientation angle, node 1, rad
          6     1.12159907818E-001,  -5.14030046761E-002,   9.92359757423E-001         F               0         WAMIT Z orientation angle, node 1, rad
          7    -4.04508959036E-004                                                     F               0         WAMIT X translation velocity, node 1, m/s
          8     2.28280259762E-005                                                     F               0         WAMIT Y translation velocity, node 1, m/s
          9    -7.51135870814E-003                                                     F               0         WAMIT Z translation velocity, node 1, m/s
         10     3.50860391336E-005                                                     F               0         WAMIT X rotation velocity, node 1, rad/s
         11    -2.74985395663E-005                                                     F               0         WAMIT Y rotation velocity, node 1, rad/s
         12    -7.03617024556E-006                                                     F               0         WAMIT Z rotation velocity, node 1, rad/s
         13     2.84368084976E-004                                                     F               0         WAMIT X translation acceleration, node 1, m/s^2
         14     6.68409105856E-004                                                     F               0         WAMIT Y translation acceleration, node 1, m/s^2
         15     4.87090612296E-004                                                     F               0         WAMIT Z translation acceleration, node 1, m/s^2
         16    -4.21772092523E-005                                                     F               0         WAMIT X rotation acceleration, node 1, rad/s^2
         17     1.13534988486E-005                                                     F               0         WAMIT Y rotation acceleration, node 1, rad/s^2
         18    -2.19528992602E-005                                                     F               0         WAMIT Z rotation acceleration, node 1, rad/s^2
         19     8.64512252808E+000                                                     F               0         Platform-RefPt X translation displacement, node 1, m
         20    -6.19499385357E-001                                                     F               0         Platform-RefPt Y translation displacement, node 1, m
         21    -1.55543610454E-001                                                     F               0         Platform-RefPt Z translation displacement, node 1, m
         22     9.93687331676E-001,   3.40465130284E-003,  -1.12133599818E-001         F               0         Platform-RefPt X orientation angle, node 1, rad
         23     2.38536484540E-003,   9.98672187328E-001,   5.14603778720E-002         F               0         Platform-RefPt Y orientation angle, node 1, rad
         24     1.12159907818E-001,  -5.14030046761E-002,   9.92359757423E-001         F               0         Platform-RefPt Z orientation angle, node 1, rad
         25    -4.04508959036E-004                                                     F               0         Platform-RefPt X translation velocity, node 1, m/s
         26     2.28280259762E-005                                                     F               0         Platform-RefPt Y translation velocity, node 1, m/s
         27    -7.51135870814E-003                                                     F               0         Platform-RefPt Z translation velocity, node 1, m/s
         28     3.50860391336E-005                                                     F               0         Platform-RefPt X rotation velocity, node 1, rad/s
         29    -2.74985395663E-005                                                     F               0         Platform-RefPt Y rotation velocity, node 1, rad/s
         30    -7.03617024556E-006                                                     F               0         Platform-RefPt Z rotation velocity, node 1, rad/s
         31     2.84368084976E-004                                                     F               0         Platform-RefPt X translation acceleration, node 1, m/s^2
         32     6.68409105856E-004                                                     F               0         Platform-RefPt Y translation acceleration, node 1, m/s^2
         33     4.87090612296E-004                                                     F               0         Platform-RefPt Z translation acceleration, node 1, m/s^2
         34    -4.21772092523E-005                                                     F               0         Platform-RefPt X rotation acceleration, node 1, rad/s^2
         35     1.13534988486E-005                                                     F               0         Platform-RefPt Y rotation acceleration, node 1, rad/s^2
         36    -2.19528992602E-005                                                     F               0         Platform-RefPt Z rotation acceleration, node 1, rad/s^2
         37     0.00000000000E+000                                                     F               0         Extended input: wave elevation at platform ref point, m

Order of outputs:
        Row   Operating Point                                                   Rotating Frame? Derivative Order Description
   ---------- ---------------                                                   --------------- ---------------- -----------
          1     0.00000000000E+000                                                     F               0         Wave1Elev, (m)
          2    -6.07925625000E+004                                                     F               0         HydroFxi, (N)
          3    -2.12936767578E+003                                                     F               0         HydroFyi, (N)
          4     2.04007456000E+008                                                     F               0         HydroFzi, (N)
          5    -1.10208896000E+008                                                     F               0         HydroMxi, (N-m)
          6    -2.41255360000E+008                                                     F               0         HydroMyi, (N-m)
          7     4.30089687500E+005                                                     F               0         HydroMzi, (N-m)


Linearized state matrices:

D: 7 x 37
     0.00000000000E+000   0.00000000000E+000   0.00000000000E+000   0.00000000000E+000   0.00000000000E+000   0.00000000000E+000   0.00000000000E+000   0.00000000000E+000   0.00000000000E+000   0.00000000000E+000   0.00000000000E+000   0.00000000000E+000   0.00000000000E+000   0.00000000000E+000   0.00000000000E+000   0.00000000000E+000   0.00000000000E+000   0.00000000000E+000   0.00000000000E+000   0.00000000000E+000   0.00000000000E+000   0.00000000000E+000   0.00000000000E+000   0.00000000000E+000   0.00000000000E+000   0.00000000000E+000   0.00000000000E+000   0.00000000000E+000   0.00000000000E+000   0.00000000000E+000   0.00000000000E+000   0.00000000000E+000   0.00000000000E+000   0.00000000000E+000   0.00000000000E+000   0.00000000000E+000   0.00000000000E+000
    -6.86000294576E+003   0.00000000000E+000   0.00000000000E+000   0.00000000000E+000   0.00000000000E+000   0.00000000000E+000  -2.82174343410E+005   0.00000000000E+000   0.00000000000E+000   0.00000000000E+000  -5.59529101142E-002   0.00000000000E+000  -9.38083896931E+006   0.00000000000E+000   1.99512100047E+001  -5.59529101142E-002   9.82680351759E+007   0.00000000000E+000   0.00000000000E+000   0.00000000000E+000   0.00000000000E+000   0.00000000000E+000   0.00000000000E+000   0.00000000000E+000   0.00000000000E+000   0.00000000000E+000   0.00000000000E+000   0.00000000000E+000   0.00000000000E+000   0.00000000000E+000   0.00000000000E+000   0.00000000000E+000   0.00000000000E+000   0.00000000000E+000   0.00000000000E+000   0.00000000000E+000   0.00000000000E+000
     0.00000000000E+000   0.00000000000E+000   0.00000000000E+000   0.00000000000E+000   0.00000000000E+000   0.00000000000E+000   0.00000000000E+000  -2.82173032513E+005   0.00000000000E+000   0.00000000000E+000   0.00000000000E+000   0.00000000000E+000   0.00000000000E+000  -9.38088807999E+006   0.00000000000E+000  -9.82662446828E+007   0.00000000000E+000   1.78567767633E+003   0.00000000000E+000   0.00000000000E+000   0.00000000000E+000   0.00000000000E+000   0.00000000000E+000   0.00000000000E+000   0.00000000000E+000   0.00000000000E+000   0.00000000000E+000   0.00000000000E+000   0.00000000000E+000   0.00000000000E+000   0.00000000000E+000   0.00000000000E+000   0.00000000000E+000   0.00000000000E+000   0.00000000000E+000   0.00000000000E+000   0.00000000000E+000
     0.00000000000E+000   0.00000000000E+000  -4.39494666861E+006   0.00000000000E+000   3.66692991724E+003   0.00000000000E+000   0.00000000000E+000   0.00000000000E+000  -8.09474816255E+005   0.00000000000E+000   0.00000000000E+000   0.00000000000E+000   1.30961788749E+002   0.00000000000E+000  -2.41345551631E+007   0.00000000000E+000   1.78762833466E+004   0.00000000000E+000   0.00000000000E+000   0.00000000000E+000   0.00000000000E+000   0.00000000000E+000   0.00000000000E+000   0.00000000000E+000   0.00000000000E+000   0.00000000000E+000   0.00000000000E+000   0.00000000000E+000   0.00000000000E+000   0.00000000000E+000   0.00000000000E+000   0.00000000000E+000   0.00000000000E+000   0.00000000000E+000   0.00000000000E+000   0.00000000000E+000   0.00000000000E+000
     0.00000000000E+000   2.04007461667E+008   2.12812906716E+003  -2.13421463291E+009   0.00000000000E+000   8.88084589332E+004   0.00000000000E+000   0.00000000000E+000   0.00000000000E+000  -2.78327658353E+009   1.14591559914E+002   0.00000000000E+000   0.00000000000E+000  -9.82010097437E+007   0.00000000000E+000  -1.13246530020E+010   1.14591559914E+002   5.30558922401E+004   0.00000000000E+000  -2.04007461667E+008  -2.12812906716E+003   0.00000000000E+000   0.00000000000E+000   0.00000000000E+000   0.00000000000E+000   0.00000000000E+000   0.00000000000E+000   0.00000000000E+000   0.00000000000E+000   0.00000000000E+000   0.00000000000E+000   0.00000000000E+000   0.00000000000E+000   0.00000000000E+000   0.00000000000E+000   0.00000000000E+000   0.00000000000E+000
    -2.04007428926E+008   0.00000000000E+000  -5.69683781056E+004   0.00000000000E+000  -2.13398063695E+009   0.00000000000E+000   0.00000000000E+000   0.00000000000E+000   0.00000000000E+000   0.00000000000E+000  -2.78327543762E+009   0.00000000000E+000   9.82036617200E+007   0.00000000000E+000   1.93168638404E+004   0.00000000000E+000  -1.13240534590E+010   0.00000000000E+000   2.04007428926E+008   0.00000000000E+000   6.08972317681E+004   0.00000000000E+000   0.00000000000E+000   0.00000000000E+000   0.00000000000E+000   0.00000000000E+000   0.00000000000E+000   0.00000000000E+000   0.00000000000E+000   0.00000000000E+000   0.00000000000E+000   0.00000000000E+000   0.00000000000E+000   0.00000000000E+000   0.00000000000E+000   0.00000000000E+000   0.00000000000E+000
    -2.12953588325E+003   6.07924879156E+004   0.00000000000E+000   0.00000000000E+000   0.00000000000E+000   0.00000000000E+000   0.00000000000E+000   0.00000000000E+000   0.00000000000E+000   0.00000000000E+000   0.00000000000E+000  -2.51327388742E+009   0.00000000000E+000   1.55376442530E+003   0.00000000000E+000   4.40407593625E+004   0.00000000000E+000  -1.95913504720E+010   2.12953588325E+003  -6.07924879156E+004   0.00000000000E+000   0.00000000000E+000   0.00000000000E+000   0.00000000000E+000   0.00000000000E+000   0.00000000000E+000   0.00000000000E+000   0.00000000000E+000   0.00000000000E+000   0.00000000000E+000   0.00000000000E+000   0.00000000000E+000   0.00000000000E+000   0.00000000000E+000   0.00000000000E+000   0.00000000000E+000   0.00000000000E+000
