
Linearized model: Predictions were generated on 13-Feb-2024 at 11:29:37 using OpenFAST, compiled as a 64-bit application using single precision at commit v3.5.1
 linked with  NWTC Subroutine Library; ElastoDyn; InflowWind; AeroDyn; ServoDyn; HydroDyn; MAP++ (<1.20.10>, <Oct-20-2023>)

Description from the FAST input file: CCT-9 Campign 4 model. Input files to be run with OpenFAST 3.5.0. GitHub branch from Lu Wang (https://github.com/luwang00/openfast/tree/dev) compiled on March 7, 2023.

Simulation information:
   Simulation time:                  1215.2500 s
   Rotor Speed:                         0.7917 rad/s
   Azimuth:                             3.5029 rad
   Wind Speed:                         16.0000 m/s
   Number of continuous states:         0
   Number of discrete states:           0
   Number of constraint states:         0
   Number of inputs:                  303
   Number of outputs:                   1
   Jacobians included in this file?    No

Order of inputs:
     Column   Operating Point                                                   Rotating Frame? Derivative Order Description
   ---------- ---------------                                                   --------------- ---------------- -----------
          1    -1.08005075455E+001                                                     F               0         X-component position of node 1 (hub), m
          2     0.00000000000E+000                                                     F               0         Y-component position of node 1 (hub), m
          3     1.49740173340E+002                                                     F               0         Z-component position of node 1 (hub), m
          4     1.36001081467E+001                                                     F               0         X-component position of node 2 (blade 1, node 1), m
          5    -6.11320686340E+000                                                     F               0         Y-component position of node 2 (blade 1, node 1), m
          6     1.44717590332E+002                                                     F               0         Z-component position of node 2 (blade 1, node 1), m
          7     1.33321990967E+001                                                     F               0         X-component position of node 3 (blade 1, node 2), m
          8    -5.57873344421E+000                                                     F               0         Y-component position of node 3 (blade 1, node 2), m
          9     1.43524047852E+002                                                     F               0         Z-component position of node 3 (blade 1, node 2), m
         10     9.68910980225E+000                                                     F               0         X-component position of node 4 (blade 1, node 3), m
         11     1.68917965889E+000                                                     F               0         Y-component position of node 4 (blade 1, node 3), m
         12     1.27293975830E+002                                                     F               0         Z-component position of node 4 (blade 1, node 3), m
         13     8.91292953491E+000                                                     F               0         X-component position of node 5 (blade 1, node 4), m
         14     3.23765158653E+000                                                     F               0         Y-component position of node 5 (blade 1, node 4), m
         15     1.23836067200E+002                                                     F               0         Z-component position of node 5 (blade 1, node 4), m
         16     8.13659858704E+000                                                     F               0         X-component position of node 6 (blade 1, node 5), m
         17     4.78641796112E+000                                                     F               0         Y-component position of node 6 (blade 1, node 5), m
         18     1.20377494812E+002                                                     F               0         Z-component position of node 6 (blade 1, node 5), m
         19     7.36041450500E+000                                                     F               0         X-component position of node 7 (blade 1, node 6), m
         20     6.33489608765E+000                                                     F               0         Y-component position of node 7 (blade 1, node 6), m
         21     1.16919570923E+002                                                     F               0         Z-component position of node 7 (blade 1, node 6), m
         22     6.58422660828E+000                                                     F               0         X-component position of node 8 (blade 1, node 7), m
         23     7.88337945938E+000                                                     F               0         Y-component position of node 8 (blade 1, node 7), m
         24     1.13461631775E+002                                                     F               0         Z-component position of node 8 (blade 1, node 7), m
         25     5.80789995193E+000                                                     F               0         X-component position of node 9 (blade 1, node 8), m
         26     9.43213939667E+000                                                     F               0         Y-component position of node 9 (blade 1, node 8), m
         27     1.10003074646E+002                                                     F               0         Z-component position of node 9 (blade 1, node 8), m
         28     5.03171157837E+000                                                     F               0         X-component position of node 10 (blade 1, node 9), m
         29     1.09806232452E+001                                                     F               0         Y-component position of node 10 (blade 1, node 9), m
         30     1.06545135498E+002                                                     F               0         Z-component position of node 10 (blade 1, node 9), m
         31     4.25552701950E+000                                                     F               0         X-component position of node 11 (blade 1, node 10), m
         32     1.25291013718E+001                                                     F               0         Y-component position of node 11 (blade 1, node 10), m
         33     1.03087211609E+002                                                     F               0         Z-component position of node 11 (blade 1, node 10), m
         34     3.47933840752E+000                                                     F               0         X-component position of node 12 (blade 1, node 11), m
         35     1.40775852203E+001                                                     F               0         Y-component position of node 12 (blade 1, node 11), m
         36     9.96292724609E+001                                                     F               0         Z-component position of node 12 (blade 1, node 11), m
         37     2.70301747322E+000                                                     F               0         X-component position of node 13 (blade 1, node 12), m
         38     1.56263399124E+001                                                     F               0         Y-component position of node 13 (blade 1, node 12), m
         39     9.61707229614E+001                                                     F               0         Z-component position of node 13 (blade 1, node 12), m
         40     1.92682838440E+000                                                     F               0         X-component position of node 14 (blade 1, node 13), m
         41     1.71748237610E+001                                                     F               0         Y-component position of node 14 (blade 1, node 13), m
         42     9.27127838135E+001                                                     F               0         Z-component position of node 14 (blade 1, node 13), m
         43     1.15064430237E+000                                                     F               0         X-component position of node 15 (blade 1, node 14), m
         44     1.87233028412E+001                                                     F               0         Y-component position of node 15 (blade 1, node 14), m
         45     8.92548599243E+001                                                     F               0         Z-component position of node 15 (blade 1, node 14), m
         46     3.74315112829E-001                                                     F               0         X-component position of node 16 (blade 1, node 15), m
         47     2.02720661163E+001                                                     F               0         Y-component position of node 16 (blade 1, node 15), m
         48     8.57962951660E+001                                                     F               0         Z-component position of node 16 (blade 1, node 15), m
         49    -4.01869654655E-001                                                     F               0         X-component position of node 17 (blade 1, node 16), m
         50     2.18205451965E+001                                                     F               0         Y-component position of node 17 (blade 1, node 16), m
         51     8.23383636475E+001                                                     F               0         Z-component position of node 17 (blade 1, node 16), m
         52    -1.17805886269E+000                                                     F               0         X-component position of node 18 (blade 1, node 17), m
         53     2.33690299988E+001                                                     F               0         Y-component position of node 18 (blade 1, node 17), m
         54     7.88804168701E+001                                                     F               0         Z-component position of node 18 (blade 1, node 17), m
         55    -1.95424401760E+000                                                     F               0         X-component position of node 19 (blade 1, node 18), m
         56     2.49175109863E+001                                                     F               0         Y-component position of node 19 (blade 1, node 18), m
         57     7.54224929810E+001                                                     F               0         Z-component position of node 19 (blade 1, node 18), m
         58    -2.73056674004E+000                                                     F               0         X-component position of node 20 (blade 1, node 19), m
         59     2.64662647247E+001                                                     F               0         Y-component position of node 20 (blade 1, node 19), m
         60     7.19639511108E+001                                                     F               0         Z-component position of node 20 (blade 1, node 19), m
         61    -3.50675630569E+000                                                     F               0         X-component position of node 21 (blade 1, node 20), m
         62     2.80147495270E+001                                                     F               0         Y-component position of node 21 (blade 1, node 20), m
         63     6.85060119629E+001                                                     F               0         Z-component position of node 21 (blade 1, node 20), m
         64    -4.28294134140E+000                                                     F               0         X-component position of node 22 (blade 1, node 21), m
         65     2.95632305145E+001                                                     F               0         Y-component position of node 22 (blade 1, node 21), m
         66     6.50480728149E+001                                                     F               0         Z-component position of node 22 (blade 1, node 21), m
         67    -5.05926799774E+000                                                     F               0         X-component position of node 23 (blade 1, node 22), m
         68     3.11119899750E+001                                                     F               0         Y-component position of node 23 (blade 1, node 22), m
         69     6.15895195007E+001                                                     F               0         Z-component position of node 23 (blade 1, node 22), m
         70    -5.83545732498E+000                                                     F               0         X-component position of node 24 (blade 1, node 23), m
         71     3.26604728699E+001                                                     F               0         Y-component position of node 24 (blade 1, node 23), m
         72     5.81315803528E+001                                                     F               0         Z-component position of node 24 (blade 1, node 23), m
         73    -6.61164236069E+000                                                     F               0         X-component position of node 25 (blade 1, node 24), m
         74     3.42089538574E+001                                                     F               0         Y-component position of node 25 (blade 1, node 24), m
         75     5.46736488342E+001                                                     F               0         Z-component position of node 25 (blade 1, node 24), m
         76    -7.38782691956E+000                                                     F               0         X-component position of node 26 (blade 1, node 25), m
         77     3.57574348450E+001                                                     F               0         Y-component position of node 26 (blade 1, node 25), m
         78     5.12157211304E+001                                                     F               0         Z-component position of node 26 (blade 1, node 25), m
         79    -8.16415405273E+000                                                     F               0         X-component position of node 27 (blade 1, node 26), m
         80     3.73061943054E+001                                                     F               0         Y-component position of node 27 (blade 1, node 26), m
         81     4.77571563721E+001                                                     F               0         Z-component position of node 27 (blade 1, node 26), m
         82    -8.94033813477E+000                                                     F               0         X-component position of node 28 (blade 1, node 27), m
         83     3.88546714783E+001                                                     F               0         Y-component position of node 28 (blade 1, node 27), m
         84     4.42992401123E+001                                                     F               0         Z-component position of node 28 (blade 1, node 27), m
         85    -9.59838008881E+000                                                     F               0         X-component position of node 29 (blade 1, node 28), m
         86     4.01674537659E+001                                                     F               0         Y-component position of node 29 (blade 1, node 28), m
         87     4.13676452637E+001                                                     F               0         Z-component position of node 29 (blade 1, node 28), m
         88     1.56438741684E+001                                                     F               0         X-component position of node 30 (blade 2, node 1), m
         89    -5.04415273666E+000                                                     F               0         Y-component position of node 30 (blade 2, node 1), m
         90     1.54031829834E+002                                                     F               0         Z-component position of node 30 (blade 2, node 1), m
         91     1.58684244156E+001                                                     F               0         X-component position of node 31 (blade 2, node 2), m
         92    -4.25208425522E+000                                                     F               0         Y-component position of node 31 (blade 2, node 2), m
         93     1.55082611084E+002                                                     F               0         Z-component position of node 31 (blade 2, node 2), m
         94     1.89219551086E+001                                                     F               0         X-component position of node 32 (blade 2, node 3), m
         95     6.51869201660E+000                                                     F               0         Y-component position of node 32 (blade 2, node 3), m
         96     1.69371627808E+002                                                     F               0         Z-component position of node 32 (blade 2, node 3), m
         97     1.95725307465E+001                                                     F               0         X-component position of node 33 (blade 2, node 4), m
         98     8.81348133087E+000                                                     F               0         Y-component position of node 33 (blade 2, node 4), m
         99     1.72416015625E+002                                                     F               0         Z-component position of node 33 (blade 2, node 4), m
        100     2.02232246399E+001                                                     F               0         X-component position of node 34 (blade 2, node 5), m
        101     1.11086940765E+001                                                     F               0         Y-component position of node 34 (blade 2, node 5), m
        102     1.75460937500E+002                                                     F               0         Z-component position of node 34 (blade 2, node 5), m
        103     2.08738021851E+001                                                     F               0         X-component position of node 35 (blade 2, node 6), m
        104     1.34034843445E+001                                                     F               0         Y-component position of node 35 (blade 2, node 6), m
        105     1.78505310059E+002                                                     F               0         Z-component position of node 35 (blade 2, node 6), m
        106     2.15243778229E+001                                                     F               0         X-component position of node 36 (blade 2, node 7), m
        107     1.56982765198E+001                                                     F               0         Y-component position of node 36 (blade 2, node 7), m
        108     1.81549697876E+002                                                     F               0         Z-component position of node 36 (blade 2, node 7), m
        109     2.21750717163E+001                                                     F               0         X-component position of node 37 (blade 2, node 8), m
        110     1.79934864044E+001                                                     F               0         Y-component position of node 37 (blade 2, node 8), m
        111     1.84594619751E+002                                                     F               0         Z-component position of node 37 (blade 2, node 8), m
        112     2.28256473541E+001                                                     F               0         X-component position of node 38 (blade 2, node 9), m
        113     2.02882766724E+001                                                     F               0         Y-component position of node 38 (blade 2, node 9), m
        114     1.87638992310E+002                                                     F               0         Z-component position of node 38 (blade 2, node 9), m
        115     2.34762229919E+001                                                     F               0         X-component position of node 39 (blade 2, node 10), m
        116     2.25830688477E+001                                                     F               0         Y-component position of node 39 (blade 2, node 10), m
        117     1.90683364868E+002                                                     F               0         Z-component position of node 39 (blade 2, node 10), m
        118     2.41268005371E+001                                                     F               0         X-component position of node 40 (blade 2, node 11), m
        119     2.48778648376E+001                                                     F               0         Y-component position of node 40 (blade 2, node 11), m
        120     1.93727752686E+002                                                     F               0         Z-component position of node 40 (blade 2, node 11), m
        121     2.47774944305E+001                                                     F               0         X-component position of node 41 (blade 2, node 12), m
        122     2.71730766296E+001                                                     F               0         Y-component position of node 41 (blade 2, node 12), m
        123     1.96772674561E+002                                                     F               0         Z-component position of node 41 (blade 2, node 12), m
        124     2.54280700684E+001                                                     F               0         X-component position of node 42 (blade 2, node 13), m
        125     2.94678649902E+001                                                     F               0         Y-component position of node 42 (blade 2, node 13), m
        126     1.99817047119E+002                                                     F               0         Z-component position of node 42 (blade 2, node 13), m
        127     2.60786476135E+001                                                     F               0         X-component position of node 43 (blade 2, node 14), m
        128     3.17626609802E+001                                                     F               0         Y-component position of node 43 (blade 2, node 14), m
        129     2.02861434937E+002                                                     F               0         Z-component position of node 43 (blade 2, node 14), m
        130     2.67293415070E+001                                                     F               0         X-component position of node 44 (blade 2, node 15), m
        131     3.40578689575E+001                                                     F               0         Y-component position of node 44 (blade 2, node 15), m
        132     2.05906356812E+002                                                     F               0         Z-component position of node 44 (blade 2, node 15), m
        133     2.73799171448E+001                                                     F               0         X-component position of node 45 (blade 2, node 16), m
        134     3.63526573181E+001                                                     F               0         Y-component position of node 45 (blade 2, node 16), m
        135     2.08950744629E+002                                                     F               0         Z-component position of node 45 (blade 2, node 16), m
        136     2.80304927826E+001                                                     F               0         X-component position of node 46 (blade 2, node 17), m
        137     3.86474494934E+001                                                     F               0         Y-component position of node 46 (blade 2, node 17), m
        138     2.11995117188E+002                                                     F               0         Z-component position of node 46 (blade 2, node 17), m
        139     2.86810684204E+001                                                     F               0         X-component position of node 47 (blade 2, node 18), m
        140     4.09422416687E+001                                                     F               0         Y-component position of node 47 (blade 2, node 18), m
        141     2.15039489746E+002                                                     F               0         Z-component position of node 47 (blade 2, node 18), m
        142     2.93317623138E+001                                                     F               0         X-component position of node 48 (blade 2, node 19), m
        143     4.32374496460E+001                                                     F               0         Y-component position of node 48 (blade 2, node 19), m
        144     2.18084411621E+002                                                     F               0         Z-component position of node 48 (blade 2, node 19), m
        145     2.99823398590E+001                                                     F               0         X-component position of node 49 (blade 2, node 20), m
        146     4.55322418213E+001                                                     F               0         Y-component position of node 49 (blade 2, node 20), m
        147     2.21128799438E+002                                                     F               0         Z-component position of node 49 (blade 2, node 20), m
        148     3.06329174042E+001                                                     F               0         X-component position of node 50 (blade 2, node 21), m
        149     4.78270454407E+001                                                     F               0         Y-component position of node 50 (blade 2, node 21), m
        150     2.24173171997E+002                                                     F               0         Z-component position of node 50 (blade 2, node 21), m
        151     3.12836093903E+001                                                     F               0         X-component position of node 51 (blade 2, node 22), m
        152     5.01222496033E+001                                                     F               0         Y-component position of node 51 (blade 2, node 22), m
        153     2.27218109131E+002                                                     F               0         Z-component position of node 51 (blade 2, node 22), m
        154     3.19341869354E+001                                                     F               0         X-component position of node 52 (blade 2, node 23), m
        155     5.24170341492E+001                                                     F               0         Y-component position of node 52 (blade 2, node 23), m
        156     2.30262481689E+002                                                     F               0         Z-component position of node 52 (blade 2, node 23), m
        157     3.25847625732E+001                                                     F               0         X-component position of node 53 (blade 2, node 24), m
        158     5.47118301392E+001                                                     F               0         Y-component position of node 53 (blade 2, node 24), m
        159     2.33306854248E+002                                                     F               0         Z-component position of node 53 (blade 2, node 24), m
        160     3.32353363037E+001                                                     F               0         X-component position of node 54 (blade 2, node 25), m
        161     5.70066184998E+001                                                     F               0         Y-component position of node 54 (blade 2, node 25), m
        162     2.36351226807E+002                                                     F               0         Z-component position of node 54 (blade 2, node 25), m
        163     3.38860321045E+001                                                     F               0         X-component position of node 55 (blade 2, node 26), m
        164     5.93018302917E+001                                                     F               0         Y-component position of node 55 (blade 2, node 26), m
        165     2.39396163940E+002                                                     F               0         Z-component position of node 55 (blade 2, node 26), m
        166     3.45366096497E+001                                                     F               0         X-component position of node 56 (blade 2, node 27), m
        167     6.15966224670E+001                                                     F               0         Y-component position of node 56 (blade 2, node 27), m
        168     2.42440551758E+002                                                     F               0         Z-component position of node 56 (blade 2, node 27), m
        169     3.50881538391E+001                                                     F               0         X-component position of node 57 (blade 2, node 28), m
        170     6.35421066284E+001                                                     F               0         Y-component position of node 57 (blade 2, node 28), m
        171     2.45021514893E+002                                                     F               0         Z-component position of node 57 (blade 2, node 28), m
        172     1.48918857574E+001                                                     F               0         X-component position of node 58 (blade 3, node 1), m