
Linearized model: Predictions were generated on 13-Feb-2024 at 11:29:37 using OpenFAST, compiled as a 64-bit application using single precision at commit v3.5.1
 linked with  NWTC Subroutine Library; ElastoDyn; InflowWind; AeroDyn; ServoDyn; HydroDyn; MAP++ (<1.20.10>, <Oct-20-2023>)

Description from the FAST input file: CCT-9 Campign 4 model. Input files to be run with OpenFAST 3.5.0. GitHub branch from Lu Wang (https://github.com/luwang00/openfast/tree/dev) compiled on March 7, 2023.

Simulation information:
   Simulation time:                  1215.4750 s
   Rotor Speed:                         0.7918 rad/s
   Azimuth:                             3.6810 rad
   Wind Speed:                         16.0000 m/s
   Number of continuous states:        14
   Number of discrete states:           0
   Number of constraint states:         0
   Number of inputs:                 1890
   Number of outputs:                  25
   Jacobians included in this file?    No

Order of continuous states:
   Row/Column Operating Point                                                   Rotating Frame? Derivative Order Description
   ---------- ---------------                                                   --------------- ---------------- -----------
          1     8.64545822144E+000                                                     F               2         Platform horizontal surge translation DOF (internal DOF index = DOF_Sg), m
          2    -6.18542492390E-001                                                     F               2         Platform horizontal sway translation DOF (internal DOF index = DOF_Sw), m
          3    -1.38520464301E-001                                                     F               2         Platform vertical heave translation DOF (internal DOF index = DOF_Hv), m
          4     5.16931191087E-002                                                     F               2         Platform roll tilt rotation DOF (internal DOF index = DOF_R), rad
          5     1.13033376634E-001                                                     F               2         Platform pitch tilt rotation DOF (internal DOF index = DOF_P), rad
          6     5.27091906406E-004                                                     F               2         Platform yaw rotation DOF (internal DOF index = DOF_Y), rad
          7     2.11024212837E+000                                                     F               2         Variable speed generator DOF (internal DOF index = DOF_GeAz), rad
          8    -6.43632229185E-005                                                     F               2         First time derivative of Platform horizontal surge translation DOF (internal DOF index = DOF_Sg), m/s
          9    -1.46247228258E-004                                                     F               2         First time derivative of Platform horizontal sway translation DOF (internal DOF index = DOF_Sw), m/s
         10    -5.79914776608E-003                                                     F               2         First time derivative of Platform vertical heave translation DOF (internal DOF index = DOF_Hv), m/s
         11     3.29783433699E-005                                                     F               2         First time derivative of Platform roll tilt rotation DOF (internal DOF index = DOF_R), rad/s
         12    -6.87714464220E-006                                                     F               2         First time derivative of Platform pitch tilt rotation DOF (internal DOF index = DOF_P), rad/s
         13    -4.27139866588E-006                                                     F               2         First time derivative of Platform yaw rotation DOF (internal DOF index = DOF_Y), rad/s
         14     7.91805028915E-001                                                     F               2         First time derivative of Variable speed generator DOF (internal DOF index = DOF_GeAz), rad/s

Order of continuous state derivatives:
   Row/Column Operating Point                                                   Rotating Frame? Derivative Order Description
   ---------- ---------------                                                   --------------- ---------------- -----------
          1    -6.43632229185E-005                                                     F               2         First time derivative of Platform horizontal surge translation DOF (internal DOF index = DOF_Sg), m/s
          2    -1.46247228258E-004                                                     F               2         First time derivative of Platform horizontal sway translation DOF (internal DOF index = DOF_Sw), m/s
          3    -5.79914776608E-003                                                     F               2         First time derivative of Platform vertical heave translation DOF (internal DOF index = DOF_Hv), m/s
          4     3.29783433699E-005                                                     F               2         First time derivative of Platform roll tilt rotation DOF (internal DOF index = DOF_R), rad/s
          5    -6.87714464220E-006                                                     F               2         First time derivative of Platform pitch tilt rotation DOF (internal DOF index = DOF_P), rad/s
          6    -4.27139866588E-006                                                     F               2         First time derivative of Platform yaw rotation DOF (internal DOF index = DOF_Y), rad/s
          7     7.91805028915E-001                                                     F               2         First time derivative of Variable speed generator DOF (internal DOF index = DOF_GeAz), rad/s
          8     5.75675978325E-004                                                     F               2         First time derivative of First time derivative of Platform horizontal surge translation DOF (internal DOF index = DOF_Sg), m/s/s
          9    -2.47208692599E-004                                                     F               2         First time derivative of First time derivative of Platform horizontal sway translation DOF (internal DOF index = DOF_Sw), m/s/s
         10    -1.24288396910E-003                                                     F               2         First time derivative of First time derivative of Platform vertical heave translation DOF (internal DOF index = DOF_Hv), m/s/s
         11     1.86348534044E-005                                                     F               2         First time derivative of First time derivative of Platform roll tilt rotation DOF (internal DOF index = DOF_R), rad/s/s
         12     3.22011219396E-005                                                     F               2         First time derivative of First time derivative of Platform pitch tilt rotation DOF (internal DOF index = DOF_P), rad/s/s
         13    -2.36282558035E-005                                                     F               2         First time derivative of First time derivative of Platform yaw rotation DOF (internal DOF index = DOF_Y), rad/s/s
         14     4.99178306200E-004                                                     F               2         First time derivative of First time derivative of Variable speed generator DOF (internal DOF index = DOF_GeAz), rad/s/s

Order of inputs:
     Column   Operating Point                                                   Rotating Frame? Derivative Order Description
   ---------- ---------------                                                   --------------- ---------------- -----------
          1     1.56960464478E+002                                                     F               0         Blade 1 X force, node 1, N
          2    -3.83700866699E+001                                                     F               0         Blade 1 Y force, node 1, N
          3    -6.19143714905E+001                                                     F               0         Blade 1 Z force, node 1, N
          4     6.73084411621E+002                                                     F               0         Blade 1 X force, node 2, N
          5    -4.96762771606E+001                                                     F               0         Blade 1 Y force, node 2, N
          6    -1.86633270264E+002                                                     F               0         Blade 1 Z force, node 2, N
          7     8.72614379883E+002                                                     F               0         Blade 1 X force, node 3, N
          8     1.05438056946E+002                                                     F               0         Blade 1 Y force, node 3, N
          9    -1.25339347839E+002                                                     F               0         Blade 1 Z force, node 3, N
         10     1.14357275391E+003                                                     F               0         Blade 1 X force, node 4, N
         11     2.56588623047E+002                                                     F               0         Blade 1 Y force, node 4, N
         12    -8.29530563354E+001                                                     F               0         Blade 1 Z force, node 4, N
         13     1.41454162598E+003                                                     F               0         Blade 1 X force, node 5, N
         14     4.07742553711E+002                                                     F               0         Blade 1 Y force, node 5, N
         15    -4.05668563843E+001                                                     F               0         Blade 1 Z force, node 5, N
         16     1.68550317383E+003                                                     F               0         Blade 1 X force, node 6, N
         17     5.58894775391E+002                                                     F               0         Blade 1 Y force, node 6, N
         18     1.81989920139E+000                                                     F               0         Blade 1 Z force, node 6, N
         19     1.95645129395E+003                                                     F               0         Blade 1 X force, node 7, N
         20     7.10042297363E+002                                                     F               0         Blade 1 Y force, node 7, N
         21     4.42063713074E+001                                                     F               0         Blade 1 Z force, node 7, N
         22     2.22740942383E+003                                                     F               0         Blade 1 X force, node 8, N
         23     8.61192810059E+002                                                     F               0         Blade 1 Y force, node 8, N
         24     8.65926742554E+001                                                     F               0         Blade 1 Z force, node 8, N
         25     2.49836791992E+003                                                     F               0         Blade 1 X force, node 9, N
         26     1.01234344482E+003                                                     F               0         Blade 1 Y force, node 9, N
         27     1.28978973389E+002                                                     F               0         Blade 1 Z force, node 9, N
         28     2.76932617188E+003                                                     F               0         Blade 1 X force, node 10, N
         29     1.16349401855E+003                                                     F               0         Blade 1 Y force, node 10, N
         30     1.71365264893E+002                                                     F               0         Blade 1 Z force, node 10, N
         31     3.04028515625E+003                                                     F               0         Blade 1 X force, node 11, N
         32     1.31464465332E+003                                                     F               0         Blade 1 Y force, node 11, N
         33     2.13751571655E+002                                                     F               0         Blade 1 Z force, node 11, N
         34     3.31126635742E+003                                                     F               0         Blade 1 X force, node 12, N
         35     1.46580566406E+003                                                     F               0         Blade 1 Y force, node 12, N
         36     2.56139739990E+002                                                     F               0         Blade 1 Z force, node 12, N
         37     3.58222729492E+003                                                     F               0         Blade 1 X force, node 13, N
         38     1.61695776367E+003                                                     F               0         Blade 1 Y force, node 13, N
         39     2.98526489258E+002                                                     F               0         Blade 1 Z force, node 13, N
         40     3.85316333008E+003                                                     F               0         Blade 1 X force, node 14, N
         41     1.76809826660E+003                                                     F               0         Blade 1 Y force, node 14, N
         42     3.40911010742E+002                                                     F               0         Blade 1 Z force, node 14, N
         43     4.12414892578E+003                                                     F               0         Blade 1 X force, node 15, N
         44     1.91926184082E+003                                                     F               0         Blade 1 Y force, node 15, N
         45     3.83299926758E+002                                                     F               0         Blade 1 Z force, node 15, N
         46     4.39507958984E+003                                                     F               0         Blade 1 X force, node 16, N
         47     2.07039892578E+003                                                     F               0         Blade 1 Y force, node 16, N
         48     4.25683471680E+002                                                     F               0         Blade 1 Z force, node 16, N
         49     5.40867968750E+003                                                     F               0         Blade 1 X force, node 17, N
         50     2.56965209961E+003                                                     F               0         Blade 1 Y force, node 17, N
         51     5.38806457520E+002                                                     F               0         Blade 1 Z force, node 17, N
         52     4.11561132812E+003                                                     F               0         Blade 1 X force, node 18, N
         53     1.92063366699E+003                                                     F               0         Blade 1 Y force, node 18, N
         54     3.86176635742E+002                                                     F               0         Blade 1 Z force, node 18, N
         55     5.02986181641E+003                                                     F               0         Blade 1 X force, node 19, N
         56     2.28862939453E+003                                                     F               0         Blade 1 Y force, node 19, N
         57     4.31685760498E+002                                                     F               0         Blade 1 Z force, node 19, N
         58     4.27224267578E+003                                                     F               0         Blade 1 X force, node 20, N
         59     1.89753210449E+003                                                     F               0         Blade 1 Y force, node 20, N
         60     3.34820770264E+002                                                     F               0         Blade 1 Z force, node 20, N
         61     6.26541650391E+003                                                     F               0         Blade 1 X force, node 21, N
         62     2.70558032227E+003                                                     F               0         Blade 1 Y force, node 21, N
         63     4.38000640869E+002                                                     F               0         Blade 1 Z force, node 21, N
         64     5.46547509766E+003                                                     F               0         Blade 1 X force, node 22, N
         65     2.29320654297E+003                                                     F               0         Blade 1 Y force, node 22, N
         66     3.36116912842E+002                                                     F               0         Blade 1 Z force, node 22, N
         67     5.55309521484E+003                                                     F               0         Blade 1 X force, node 23, N
         68     2.26912133789E+003                                                     F               0         Blade 1 Y force, node 23, N
         69     2.99724151611E+002                                                     F               0         Blade 1 Z force, node 23, N
         70     5.73756054688E+003                                                     F               0         Blade 1 X force, node 24, N
         71     2.28391845703E+003                                                     F               0         Blade 1 Y force, node 24, N
         72     2.68083923340E+002                                                     F               0         Blade 1 Z force, node 24, N
         73     5.81469873047E+003                                                     F               0         Blade 1 X force, node 25, N
         74     2.25559399414E+003                                                     F               0         Blade 1 Y force, node 25, N
         75     2.31155364990E+002                                                     F               0         Blade 1 Z force, node 25, N
         76     5.92278417969E+003                                                     F               0         Blade 1 X force, node 26, N
         77     2.23969091797E+003                                                     F               0         Blade 1 Y force, node 26, N
         78     1.95743026733E+002                                                     F               0         Blade 1 Z force, node 26, N
         79     7.01875585938E+003                                                     F               0         Blade 1 X force, node 27, N
         80     2.58398559570E+003                                                     F               0         Blade 1 Y force, node 27, N
         81     1.83799179077E+002                                                     F               0         Blade 1 Z force, node 27, N
         82     5.14489892578E+003                                                     F               0         Blade 1 X force, node 28, N
         83     1.84479431152E+003                                                     F               0         Blade 1 Y force, node 28, N
         84     1.00861808777E+002                                                     F               0         Blade 1 Z force, node 28, N
         85     6.23319042969E+003                                                     F               0         Blade 1 X force, node 29, N
         86     2.18545996094E+003                                                     F               0         Blade 1 Y force, node 29, N
         87     8.81666030884E+001                                                     F               0         Blade 1 Z force, node 29, N
         88     5.25400292969E+003                                                     F               0         Blade 1 X force, node 30, N
         89     1.80172888184E+003                                                     F               0         Blade 1 Y force, node 30, N
         90     4.65678253174E+001                                                     F               0         Blade 1 Z force, node 30, N
         91     7.51005419922E+003                                                     F               0         Blade 1 X force, node 31, N
         92     2.50895922852E+003                                                     F               0         Blade 1 Y force, node 31, N
         93     2.09529247284E+001                                                     F               0         Blade 1 Z force, node 31, N
         94     6.52689355469E+003                                                     F               0         Blade 1 X force, node 32, N
         95     2.12330322266E+003                                                     F               0         Blade 1 Y force, node 32, N
         96    -2.10672130585E+001                                                     F               0         Blade 1 Z force, node 32, N
         97     6.62153125000E+003                                                     F               0         Blade 1 X force, node 33, N
         98     2.10116333008E+003                                                     F               0         Blade 1 Y force, node 33, N
         99    -5.77147407532E+001                                                     F               0         Blade 1 Z force, node 33, N
        100     6.71352246094E+003                                                     F               0         Blade 1 X force, node 34, N
        101     2.07826464844E+003                                                     F               0         Blade 1 Y force, node 34, N
        102    -9.42835388184E+001                                                     F               0         Blade 1 Z force, node 34, N
        103     6.78812744141E+003                                                     F               0         Blade 1 X force, node 35, N
        104     2.05017944336E+003                                                     F               0         Blade 1 Y force, node 35, N
        105    -1.30473800659E+002                                                     F               0         Blade 1 Z force, node 35, N
        106     6.85658203125E+003                                                     F               0         Blade 1 X force, node 36, N
        107     2.02025134277E+003                                                     F               0         Blade 1 Y force, node 36, N
        108    -1.66535614014E+002                                                     F               0         Blade 1 Z force, node 36, N
        109     8.09590673828E+003                                                     F               0         Blade 1 X force, node 37, N
        110     2.32341333008E+003                                                     F               0         Blade 1 Y force, node 37, N
        111    -2.39207122803E+002                                                     F               0         Blade 1 Z force, node 37, N
        112     5.81454980469E+003                                                     F               0         Blade 1 X force, node 38, N
        113     1.62767260742E+003                                                     F               0         Blade 1 Y force, node 38, N
        114    -1.99968688965E+002                                                     F               0         Blade 1 Z force, node 38, N
        115     7.03978369141E+003                                                     F               0         Blade 1 X force, node 39, N
        116     1.93024938965E+003                                                     F               0         Blade 1 Y force, node 39, N
        117    -2.69848968506E+002                                                     F               0         Blade 1 Z force, node 39, N
        118     5.93142187500E+003                                                     F               0         Blade 1 X force, node 40, N
        119     1.59263854980E+003                                                     F               0         Blade 1 Y force, node 40, N
        120    -2.50508239746E+002                                                     F               0         Blade 1 Z force, node 40, N
        121     8.29942382812E+003                                                     F               0         Blade 1 X force, node 41, N
        122     2.17502587891E+003                                                     F               0         Blade 1 Y force, node 41, N
        123    -3.87214202881E+002                                                     F               0         Blade 1 Z force, node 41, N
        124     7.16230371094E+003                                                     F               0         Blade 1 X force, node 42, N
        125     1.83268542480E+003                                                     F               0         Blade 1 Y force, node 42, N
        126    -3.64604156494E+002                                                     F               0         Blade 1 Z force, node 42, N
        127     7.18605419922E+003                                                     F               0         Blade 1 X force, node 43, N
        128     1.79734582520E+003                                                     F               0         Blade 1 Y force, node 43, N
        129    -3.94251647949E+002                                                     F               0         Blade 1 Z force, node 43, N
        130     7.24610449219E+003                                                     F               0         Blade 1 X force, node 44, N
        131     1.77138598633E+003                                                     F               0         Blade 1 Y force, node 44, N
        132    -4.25684600830E+002                                                     F               0         Blade 1 Z force, node 44, N
        133     7.18536279297E+003                                                     F               0         Blade 1 X force, node 45, N
        134     1.71848132324E+003                                                     F               0         Blade 1 Y force, node 45, N
        135    -4.48246826172E+002                                                     F               0         Blade 1 Z force, node 45, N
        136     7.23678710938E+003                                                     F               0         Blade 1 X force, node 46, N
        137     1.69340075684E+003                                                     F               0         Blade 1 Y force, node 46, N
        138    -4.77121246338E+002                                                     F               0         Blade 1 Z force, node 46, N
        139     8.51139550781E+003                                                     F               0         Blade 1 X force, node 47, N
        140     1.94498059082E+003                                                     F               0         Blade 1 Y force, node 47, N
        141    -5.93206604004E+002                                                     F               0         Blade 1 Z force, node 47, N
        142     5.98623828125E+003                                                     F               0         Blade 1 X force, node 48, N
        143     1.33719445801E+003                                                     F               0         Blade 1 Y force, node 48, N
        144    -4.38328613281E+002                                                     F               0         Blade 1 Z force, node 48, N
        145     7.23881591797E+003                                                     F               0         Blade 1 X force, node 49, N
        146     1.58639624023E+003                                                     F               0         Blade 1 Y force, node 49, N
        147    -5.51054809570E+002                                                     F               0         Blade 1 Z force, node 49, N
        148     6.09125488281E+003                                                     F               0         Blade 1 X force, node 50, N
        149     1.30877734375E+003                                                     F               0         Blade 1 Y force, node 50, N
        150    -4.81638305664E+002                                                     F               0         Blade 1 Z force, node 50, N
        151     8.35634667969E+003                                                     F               0         Blade 1 X force, node 51, N
        152     1.75463745117E+003                                                     F               0         Blade 1 Y force, node 51, N
        153    -6.88769958496E+002                                                     F               0         Blade 1 Z force, node 51, N
        154     7.20679882812E+003                                                     F               0         Blade 1 X force, node 52, N
        155     1.47951367188E+003                                                     F               0         Blade 1 Y force, node 52, N
        156    -6.17189819336E+002                                                     F               0         Blade 1 Z force, node 52, N
        157     7.19478710938E+003                                                     F               0         Blade 1 X force, node 53, N
        158     1.44534338379E+003                                                     F               0         Blade 1 Y force, node 53, N