
Linearized model: Predictions were generated on 31-Jan-2024 at 12:35:17 using OpenFAST, compiled as a 64-bit application using single precision at commit v3.5.1
 linked with  NWTC Subroutine Library; ElastoDyn; InflowWind; AeroDyn; ServoDyn; HydroDyn; MAP++ (<1.20.10>, <Oct-20-2023>)

Description from the FAST input file: CCT-9 Campign 4 model. Input files to be run with OpenFAST 3.5.0. GitHub branch from Lu Wang (https://github.com/luwang00/openfast/tree/dev) compiled on March 7, 2023.

Simulation information:
   Simulation time:                   508.6500 s
   Rotor Speed:                         0.8937 rad/s
   Azimuth:                             2.1937 rad
   Wind Speed:                         10.0000 m/s
   Number of continuous states:        12
   Number of discrete states:           0
   Number of constraint states:         0
   Number of inputs:                 3988
   Number of outputs:                  36
   Jacobians included in this file?    No

Order of continuous states:
   Row/Column Operating Point                     Rotating Frame? Derivative Order Description
   ---------- ---------------                     --------------- ---------------- -----------
          1    8.160E+00                                 F               2         ED Platform horizontal surge translation DOF (internal DOF index = DOF_Sg), m
          2   -9.743E-02                                 F               2         ED Platform vertical heave translation DOF (internal DOF index = DOF_Hv), m
          3    7.098E-03                                 F               2         ED Platform yaw rotation DOF (internal DOF index = DOF_Y), rad
          4    3.854E-01                                 F               2         ED 1st tower fore-aft bending mode DOF (internal DOF index = DOF_TFA1), m
          5    1.286E-03                                 F               2         ED 2nd tower fore-aft bending mode DOF (internal DOF index = DOF_TFA2), m
          6    6.229E-01                                 F               2         ED Variable speed generator DOF (internal DOF index = DOF_GeAz), rad
          7   -2.960E-03                                 F               2         ED First time derivative of Platform horizontal surge translation DOF (internal DOF index = DOF_Sg), m/s
          8   -4.042E-03                                 F               2         ED First time derivative of Platform vertical heave translation DOF (internal DOF index = DOF_Hv), m/s
          9   -1.549E-07                                 F               2         ED First time derivative of Platform yaw rotation DOF (internal DOF index = DOF_Y), rad/s
         10   -5.144E-04                                 F               2         ED First time derivative of 1st tower fore-aft bending mode DOF (internal DOF index = DOF_TFA1), m/s
         11    4.198E-06                                 F               2         ED First time derivative of 2nd tower fore-aft bending mode DOF (internal DOF index = DOF_TFA2), m/s
         12    8.937E-01                                 F               2         ED First time derivative of Variable speed generator DOF (internal DOF index = DOF_GeAz), rad/s

Order of continuous state derivatives:
   Row/Column Operating Point                     Rotating Frame? Derivative Order Description
   ---------- ---------------                     --------------- ---------------- -----------
          1   -2.960E-03                                 F               2         First time derivative of ED Platform horizontal surge translation DOF (internal DOF index = DOF_Sg), m/s
          2   -4.042E-03                                 F               2         First time derivative of ED Platform vertical heave translation DOF (internal DOF index = DOF_Hv), m/s
          3   -1.549E-07                                 F               2         First time derivative of ED Platform yaw rotation DOF (internal DOF index = DOF_Y), rad/s
          4   -5.144E-04                                 F               2         First time derivative of ED 1st tower fore-aft bending mode DOF (internal DOF index = DOF_TFA1), m/s
          5    4.198E-06                                 F               2         First time derivative of ED 2nd tower fore-aft bending mode DOF (internal DOF index = DOF_TFA2), m/s
          6    8.937E-01                                 F               2         First time derivative of ED Variable speed generator DOF (internal DOF index = DOF_GeAz), rad/s
          7   -2.363E-04                                 F               2         First time derivative of ED First time derivative of Platform horizontal surge translation DOF (internal DOF index = DOF_Sg), m/s/s
          8    2.243E-03                                 F               2         First time derivative of ED First time derivative of Platform vertical heave translation DOF (internal DOF index = DOF_Hv), m/s/s
          9    3.781E-06                                 F               2         First time derivative of ED First time derivative of Platform yaw rotation DOF (internal DOF index = DOF_Y), rad/s/s
         10   -4.935E-04                                 F               2         First time derivative of ED First time derivative of 1st tower fore-aft bending mode DOF (internal DOF index = DOF_TFA1), m/s/s
         11    1.868E-06                                 F               2         First time derivative of ED First time derivative of 2nd tower fore-aft bending mode DOF (internal DOF index = DOF_TFA2), m/s/s
         12    1.946E-04                                 F               2         First time derivative of ED First time derivative of Variable speed generator DOF (internal DOF index = DOF_GeAz), rad/s/s

Order of inputs:
     Column   Operating Point                     Rotating Frame? Derivative Order Description
   ---------- ---------------                     --------------- ---------------- -----------
          1   -1.080E+01                                 F               0         IfW X-component position of node 1 (hub), m
          2    0.000E+00                                 F               0         IfW Y-component position of node 1 (hub), m
          3    1.497E+02                                 F               0         IfW Z-component position of node 1 (hub), m
          4    2.043E-01                                 F               0         IfW X-component position of node 2 (blade 1, node 1), m
          5   -1.146E+01                                 F               0         IfW Y-component position of node 2 (blade 1, node 1), m
          6    1.463E+02                                 F               0         IfW Z-component position of node 2 (blade 1, node 1), m
          7    1.123E-01                                 F               0         IfW X-component position of node 3 (blade 1, node 2), m
          8   -1.251E+01                                 F               0         IfW Y-component position of node 3 (blade 1, node 2), m
          9    1.455E+02                                 F               0         IfW Z-component position of node 3 (blade 1, node 2), m
         10   -1.139E+00                                 F               0         IfW X-component position of node 4 (blade 1, node 3), m
         11   -2.679E+01                                 F               0         IfW Y-component position of node 4 (blade 1, node 3), m
         12    1.344E+02                                 F               0         IfW Z-component position of node 4 (blade 1, node 3), m
         13   -1.405E+00                                 F               0         IfW X-component position of node 5 (blade 1, node 4), m
         14   -2.984E+01                                 F               0         IfW Y-component position of node 5 (blade 1, node 4), m
         15    1.320E+02                                 F               0         IfW Z-component position of node 5 (blade 1, node 4), m
         16   -1.672E+00                                 F               0         IfW X-component position of node 6 (blade 1, node 5), m
         17   -3.288E+01                                 F               0         IfW Y-component position of node 6 (blade 1, node 5), m
         18    1.296E+02                                 F               0         IfW Z-component position of node 6 (blade 1, node 5), m
         19   -1.939E+00                                 F               0         IfW X-component position of node 7 (blade 1, node 6), m
         20   -3.592E+01                                 F               0         IfW Y-component position of node 7 (blade 1, node 6), m
         21    1.273E+02                                 F               0         IfW Z-component position of node 7 (blade 1, node 6), m
         22   -2.205E+00                                 F               0         IfW X-component position of node 8 (blade 1, node 7), m
         23   -3.897E+01                                 F               0         IfW Y-component position of node 8 (blade 1, node 7), m
         24    1.249E+02                                 F               0         IfW Z-component position of node 8 (blade 1, node 7), m
         25   -2.472E+00                                 F               0         IfW X-component position of node 9 (blade 1, node 8), m
         26   -4.201E+01                                 F               0         IfW Y-component position of node 9 (blade 1, node 8), m
         27    1.225E+02                                 F               0         IfW Z-component position of node 9 (blade 1, node 8), m
         28   -2.738E+00                                 F               0         IfW X-component position of node 10 (blade 1, node 9), m
         29   -4.505E+01                                 F               0         IfW Y-component position of node 10 (blade 1, node 9), m
         30    1.201E+02                                 F               0         IfW Z-component position of node 10 (blade 1, node 9), m
         31   -3.005E+00                                 F               0         IfW X-component position of node 11 (blade 1, node 10), m
         32   -4.810E+01                                 F               0         IfW Y-component position of node 11 (blade 1, node 10), m
         33    1.178E+02                                 F               0         IfW Z-component position of node 11 (blade 1, node 10), m
         34   -3.272E+00                                 F               0         IfW X-component position of node 12 (blade 1, node 11), m
         35   -5.114E+01                                 F               0         IfW Y-component position of node 12 (blade 1, node 11), m
         36    1.154E+02                                 F               0         IfW Z-component position of node 12 (blade 1, node 11), m
         37   -3.538E+00                                 F               0         IfW X-component position of node 13 (blade 1, node 12), m
         38   -5.418E+01                                 F               0         IfW Y-component position of node 13 (blade 1, node 12), m
         39    1.130E+02                                 F               0         IfW Z-component position of node 13 (blade 1, node 12), m
         40   -3.805E+00                                 F               0         IfW X-component position of node 14 (blade 1, node 13), m
         41   -5.723E+01                                 F               0         IfW Y-component position of node 14 (blade 1, node 13), m
         42    1.106E+02                                 F               0         IfW Z-component position of node 14 (blade 1, node 13), m
         43   -4.071E+00                                 F               0         IfW X-component position of node 15 (blade 1, node 14), m
         44   -6.027E+01                                 F               0         IfW Y-component position of node 15 (blade 1, node 14), m
         45    1.083E+02                                 F               0         IfW Z-component position of node 15 (blade 1, node 14), m
         46   -4.338E+00                                 F               0         IfW X-component position of node 16 (blade 1, node 15), m
         47   -6.331E+01                                 F               0         IfW Y-component position of node 16 (blade 1, node 15), m
         48    1.059E+02                                 F               0         IfW Z-component position of node 16 (blade 1, node 15), m
         49   -4.604E+00                                 F               0         IfW X-component position of node 17 (blade 1, node 16), m
         50   -6.636E+01                                 F               0         IfW Y-component position of node 17 (blade 1, node 16), m
         51    1.035E+02                                 F               0         IfW Z-component position of node 17 (blade 1, node 16), m
         52   -4.871E+00                                 F               0         IfW X-component position of node 18 (blade 1, node 17), m
         53   -6.940E+01                                 F               0         IfW Y-component position of node 18 (blade 1, node 17), m
         54    1.012E+02                                 F               0         IfW Z-component position of node 18 (blade 1, node 17), m
         55   -5.138E+00                                 F               0         IfW X-component position of node 19 (blade 1, node 18), m
         56   -7.244E+01                                 F               0         IfW Y-component position of node 19 (blade 1, node 18), m
         57    9.879E+01                                 F               0         IfW Z-component position of node 19 (blade 1, node 18), m
         58   -5.404E+00                                 F               0         IfW X-component position of node 20 (blade 1, node 19), m
         59   -7.549E+01                                 F               0         IfW Y-component position of node 20 (blade 1, node 19), m
         60    9.641E+01                                 F               0         IfW Z-component position of node 20 (blade 1, node 19), m
         61   -5.671E+00                                 F               0         IfW X-component position of node 21 (blade 1, node 20), m
         62   -7.853E+01                                 F               0         IfW Y-component position of node 21 (blade 1, node 20), m
         63    9.404E+01                                 F               0         IfW Z-component position of node 21 (blade 1, node 20), m
         64   -5.937E+00                                 F               0         IfW X-component position of node 22 (blade 1, node 21), m
         65   -8.157E+01                                 F               0         IfW Y-component position of node 22 (blade 1, node 21), m
         66    9.167E+01                                 F               0         IfW Z-component position of node 22 (blade 1, node 21), m
         67   -6.204E+00                                 F               0         IfW X-component position of node 23 (blade 1, node 22), m
         68   -8.462E+01                                 F               0         IfW Y-component position of node 23 (blade 1, node 22), m
         69    8.930E+01                                 F               0         IfW Z-component position of node 23 (blade 1, node 22), m
         70   -6.470E+00                                 F               0         IfW X-component position of node 24 (blade 1, node 23), m
         71   -8.766E+01                                 F               0         IfW Y-component position of node 24 (blade 1, node 23), m
         72    8.693E+01                                 F               0         IfW Z-component position of node 24 (blade 1, node 23), m
         73   -6.737E+00                                 F               0         IfW X-component position of node 25 (blade 1, node 24), m
         74   -9.070E+01                                 F               0         IfW Y-component position of node 25 (blade 1, node 24), m
         75    8.456E+01                                 F               0         IfW Z-component position of node 25 (blade 1, node 24), m
         76   -7.004E+00                                 F               0         IfW X-component position of node 26 (blade 1, node 25), m
         77   -9.375E+01                                 F               0         IfW Y-component position of node 26 (blade 1, node 25), m
         78    8.218E+01                                 F               0         IfW Z-component position of node 26 (blade 1, node 25), m
         79   -7.270E+00                                 F               0         IfW X-component position of node 27 (blade 1, node 26), m
         80   -9.679E+01                                 F               0         IfW Y-component position of node 27 (blade 1, node 26), m
         81    7.981E+01                                 F               0         IfW Z-component position of node 27 (blade 1, node 26), m
         82   -7.537E+00                                 F               0         IfW X-component position of node 28 (blade 1, node 27), m
         83   -9.983E+01                                 F               0         IfW Y-component position of node 28 (blade 1, node 27), m
         84    7.744E+01                                 F               0         IfW Z-component position of node 28 (blade 1, node 27), m
         85   -7.763E+00                                 F               0         IfW X-component position of node 29 (blade 1, node 28), m
         86   -1.024E+02                                 F               0         IfW Y-component position of node 29 (blade 1, node 28), m
         87    7.543E+01                                 F               0         IfW Z-component position of node 29 (blade 1, node 28), m
         88    2.617E-01                                 F               0         IfW X-component position of node 30 (blade 2, node 1), m
         89   -1.960E+00                                 F               0         IfW Y-component position of node 30 (blade 2, node 1), m
         90    1.477E+02                                 F               0         IfW Z-component position of node 30 (blade 2, node 1), m
         91    1.835E-01                                 F               0         IfW X-component position of node 31 (blade 2, node 2), m
         92   -7.214E-01                                 F               0         IfW Y-component position of node 31 (blade 2, node 2), m
         93    1.472E+02                                 F               0         IfW Z-component position of node 31 (blade 2, node 2), m
         94   -8.795E-01                                 F               0         IfW X-component position of node 32 (blade 2, node 3), m
         95    1.612E+01                                 F               0         IfW Y-component position of node 32 (blade 2, node 3), m
         96    1.405E+02                                 F               0         IfW Z-component position of node 32 (blade 2, node 3), m
         97   -1.106E+00                                 F               0         IfW X-component position of node 33 (blade 2, node 4), m
         98    1.971E+01                                 F               0         IfW Y-component position of node 33 (blade 2, node 4), m
         99    1.391E+02                                 F               0         IfW Z-component position of node 33 (blade 2, node 4), m
        100   -1.333E+00                                 F               0         IfW X-component position of node 34 (blade 2, node 5), m
        101    2.330E+01                                 F               0         IfW Y-component position of node 34 (blade 2, node 5), m
        102    1.376E+02                                 F               0         IfW Z-component position of node 34 (blade 2, node 5), m
        103   -1.559E+00                                 F               0         IfW X-component position of node 35 (blade 2, node 6), m
        104    2.689E+01                                 F               0         IfW Y-component position of node 35 (blade 2, node 6), m
        105    1.362E+02                                 F               0         IfW Z-component position of node 35 (blade 2, node 6), m
        106   -1.785E+00                                 F               0         IfW X-component position of node 36 (blade 2, node 7), m
        107    3.047E+01                                 F               0         IfW Y-component position of node 36 (blade 2, node 7), m
        108    1.348E+02                                 F               0         IfW Z-component position of node 36 (blade 2, node 7), m
        109   -2.012E+00                                 F               0         IfW X-component position of node 37 (blade 2, node 8), m
        110    3.406E+01                                 F               0         IfW Y-component position of node 37 (blade 2, node 8), m
        111    1.334E+02                                 F               0         IfW Z-component position of node 37 (blade 2, node 8), m
        112   -2.238E+00                                 F               0         IfW X-component position of node 38 (blade 2, node 9), m
        113    3.765E+01                                 F               0         IfW Y-component position of node 38 (blade 2, node 9), m
        114    1.319E+02                                 F               0         IfW Z-component position of node 38 (blade 2, node 9), m
        115   -2.465E+00                                 F               0         IfW X-component position of node 39 (blade 2, node 10), m
        116    4.124E+01                                 F               0         IfW Y-component position of node 39 (blade 2, node 10), m
        117    1.305E+02                                 F               0         IfW Z-component position of node 39 (blade 2, node 10), m
        118   -2.691E+00                                 F               0         IfW X-component position of node 40 (blade 2, node 11), m
        119    4.483E+01                                 F               0         IfW Y-component position of node 40 (blade 2, node 11), m
        120    1.291E+02                                 F               0         IfW Z-component position of node 40 (blade 2, node 11), m
        121   -2.918E+00                                 F               0         IfW X-component position of node 41 (blade 2, node 12), m
        122    4.842E+01                                 F               0         IfW Y-component position of node 41 (blade 2, node 12), m
        123    1.277E+02                                 F               0         IfW Z-component position of node 41 (blade 2, node 12), m
        124   -3.144E+00                                 F               0         IfW X-component position of node 42 (blade 2, node 13), m
        125    5.200E+01                                 F               0         IfW Y-component position of node 42 (blade 2, node 13), m
        126    1.262E+02                                 F               0         IfW Z-component position of node 42 (blade 2, node 13), m
        127   -3.371E+00                                 F               0         IfW X-component position of node 43 (blade 2, node 14), m
        128    5.559E+01                                 F               0         IfW Y-component position of node 43 (blade 2, node 14), m
        129    1.248E+02                                 F               0         IfW Z-component position of node 43 (blade 2, node 14), m
        130   -3.597E+00                                 F               0         IfW X-component position of node 44 (blade 2, node 15), m
        131    5.918E+01                                 F               0         IfW Y-component position of node 44 (blade 2, node 15), m
        132    1.234E+02                                 F               0         IfW Z-component position of node 44 (blade 2, node 15), m
        133   -3.824E+00                                 F               0         IfW X-component position of node 45 (blade 2, node 16), m
        134    6.277E+01                                 F               0         IfW Y-component position of node 45 (blade 2, node 16), m
        135    1.220E+02                                 F               0         IfW Z-component position of node 45 (blade 2, node 16), m
        136   -4.050E+00                                 F               0         IfW X-component position of node 46 (blade 2, node 17), m
        137    6.636E+01                                 F               0         IfW Y-component position of node 46 (blade 2, node 17), m
        138    1.205E+02                                 F               0         IfW Z-component position of node 46 (blade 2, node 17), m
        139   -4.277E+00                                 F               0         IfW X-component position of node 47 (blade 2, node 18), m
        140    6.995E+01                                 F               0         IfW Y-component position of node 47 (blade 2, node 18), m
        141    1.191E+02                                 F               0         IfW Z-component position of node 47 (blade 2, node 18), m
        142   -4.503E+00                                 F               0         IfW X-component position of node 48 (blade 2, node 19), m
        143    7.353E+01                                 F               0         IfW Y-component position of node 48 (blade 2, node 19), m
        144    1.177E+02                                 F               0         IfW Z-component position of node 48 (blade 2, node 19), m
        145   -4.730E+00                                 F               0         IfW X-component position of node 49 (blade 2, node 20), m
        146    7.712E+01                                 F               0         IfW Y-component position of node 49 (blade 2, node 20), m
        147    1.163E+02                                 F               0         IfW Z-component position of node 49 (blade 2, node 20), m
        148   -4.956E+00                                 F               0         IfW X-component position of node 50 (blade 2, node 21), m
        149    8.071E+01                                 F               0         IfW Y-component position of node 50 (blade 2, node 21), m
        150    1.148E+02                                 F               0         IfW Z-component position of node 50 (blade 2, node 21), m
        151   -5.183E+00                                 F               0         IfW X-component position of node 51 (blade 2, node 22), m
        152    8.430E+01                                 F               0         IfW Y-component position of node 51 (blade 2, node 22), m
        153    1.134E+02                                 F               0         IfW Z-component position of node 51 (blade 2, node 22), m
        154   -5.409E+00                                 F               0         IfW X-component position of node 52 (blade 2, node 23), m
        155    8.789E+01                                 F               0         IfW Y-component position of node 52 (blade 2, node 23), m
        156    1.120E+02                                 F               0         IfW Z-component position of node 52 (blade 2, node 23), m
        157   -5.636E+00                                 F               0         IfW X-component position of node 53 (blade 2, node 24), m
        158    9.148E+01                                 F               0         IfW Y-component position of node 53 (blade 2, node 24), m
        159    1.106E+02                                 F               0         IfW Z-component position of node 53 (blade 2, node 24), m
        160   -5.862E+00                                 F               0         IfW X-component position of node 54 (blade 2, node 25), m
        161    9.506E+01                                 F               0         IfW Y-component position of node 54 (blade 2, node 25), m
        162    1.091E+02                                 F               0         IfW Z-component position of node 54 (blade 2, node 25), m
        163   -6.089E+00                                 F               0         IfW X-component position of node 55 (blade 2, node 26), m
        164    9.865E+01                                 F               0         IfW Y-component position of node 55 (blade 2, node 26), m
        165    1.077E+02                                 F               0         IfW Z-component position of node 55 (blade 2, node 26), m
        166   -6.315E+00                                 F               0         IfW X-component position of node 56 (blade 2, node 27), m
        167    1.022E+02                                 F               0         IfW Y-component position of node 56 (blade 2, node 27), m
        168    1.063E+02                                 F               0         IfW Z-component position of node 56 (blade 2, node 27), m
        169   -6.507E+00                                 F               0         IfW X-component position of node 57 (blade 2, node 28), m
        170    1.053E+02                                 F               0         IfW Y-component position of node 57 (blade 2, node 28), m
        171    1.051E+02                                 F               0         IfW Z-component position of node 57 (blade 2, node 28), m