
Linearized model: Predictions were generated on 13-Feb-2024 at 11:29:37 using OpenFAST, compiled as a 64-bit application using single precision at commit v3.5.1
 linked with  NWTC Subroutine Library; ElastoDyn; InflowWind; AeroDyn; ServoDyn; HydroDyn; MAP++ (<1.20.10>, <Oct-20-2023>)

Description from the FAST input file: CCT-9 Campign 4 model. Input files to be run with OpenFAST 3.5.0. GitHub branch from Lu Wang (https://github.com/luwang00/openfast/tree/dev) compiled on March 7, 2023.

Simulation information:
   Simulation time:                  1211.0500 s
   Rotor Speed:                         0.7916 rad/s
   Azimuth:                             0.1782 rad
   Wind Speed:                         16.0000 m/s
   Number of continuous states:         0
   Number of discrete states:           0
   Number of constraint states:         0
   Number of inputs:                   37
   Number of outputs:                   7
   Jacobians included in this file?    No

Order of inputs:
     Column   Operating Point                                                   Rotating Frame? Derivative Order Description
   ---------- ---------------                                                   --------------- ---------------- -----------
          1     8.64533996582E+000                                                     F               0         WAMIT X translation displacement, node 1, m
          2    -6.19845211506E-001                                                     F               0         WAMIT Y translation displacement, node 1, m
          3    -1.31288602948E-001                                                     F               0         WAMIT Z translation displacement, node 1, m
          4     9.93686378002E-001,   3.40254860930E-003,  -1.12141788006E-001         F               0         WAMIT X orientation angle, node 1, rad
          5     2.37792218104E-003,   9.98676776886E-001,   5.13720624149E-002         F               0         WAMIT Y orientation angle, node 1, rad
          6     1.12168192863E-001,  -5.13143837452E-002,   9.92363393307E-001         F               0         WAMIT Z orientation angle, node 1, rad
          7     8.43793459353E-005                                                     F               0         WAMIT X translation velocity, node 1, m/s
          8     4.03724377975E-004                                                     F               0         WAMIT Y translation velocity, node 1, m/s
          9     2.95603508130E-003                                                     F               0         WAMIT Z translation velocity, node 1, m/s
         10    -3.24947723129E-005                                                     F               0         WAMIT X rotation velocity, node 1, rad/s
         11     1.05325971163E-005                                                     F               0         WAMIT Y rotation velocity, node 1, rad/s
         12    -4.74950525131E-007                                                     F               0         WAMIT Z rotation velocity, node 1, rad/s
         13     3.88490479963E-006                                                     F               0         WAMIT X translation acceleration, node 1, m/s^2
         14    -9.12700343179E-005                                                     F               0         WAMIT Y translation acceleration, node 1, m/s^2
         15    -2.12003826164E-003                                                     F               0         WAMIT Z translation acceleration, node 1, m/s^2
         16     1.26460308820E-005                                                     F               0         WAMIT X rotation acceleration, node 1, rad/s^2
         17     3.91350886275E-006                                                     F               0         WAMIT Y rotation acceleration, node 1, rad/s^2
         18     9.87721159618E-006                                                     F               0         WAMIT Z rotation acceleration, node 1, rad/s^2
         19     8.64533996582E+000                                                     F               0         Platform-RefPt X translation displacement, node 1, m
         20    -6.19845211506E-001                                                     F               0         Platform-RefPt Y translation displacement, node 1, m
         21    -1.31288602948E-001                                                     F               0         Platform-RefPt Z translation displacement, node 1, m
         22     9.93686378002E-001,   3.40254860930E-003,  -1.12141788006E-001         F               0         Platform-RefPt X orientation angle, node 1, rad
         23     2.37792218104E-003,   9.98676776886E-001,   5.13720624149E-002         F               0         Platform-RefPt Y orientation angle, node 1, rad
         24     1.12168192863E-001,  -5.13143837452E-002,   9.92363393307E-001         F               0         Platform-RefPt Z orientation angle, node 1, rad
         25     8.43793459353E-005                                                     F               0         Platform-RefPt X translation velocity, node 1, m/s
         26     4.03724377975E-004                                                     F               0         Platform-RefPt Y translation velocity, node 1, m/s
         27     2.95603508130E-003                                                     F               0         Platform-RefPt Z translation velocity, node 1, m/s
         28    -3.24947723129E-005                                                     F               0         Platform-RefPt X rotation velocity, node 1, rad/s
         29     1.05325971163E-005                                                     F               0         Platform-RefPt Y rotation velocity, node 1, rad/s
         30    -4.74950525131E-007                                                     F               0         Platform-RefPt Z rotation velocity, node 1, rad/s
         31     3.88490479963E-006                                                     F               0         Platform-RefPt X translation acceleration, node 1, m/s^2
         32    -9.12700343179E-005                                                     F               0         Platform-RefPt Y translation acceleration, node 1, m/s^2
         33    -2.12003826164E-003                                                     F               0         Platform-RefPt Z translation acceleration, node 1, m/s^2
         34     1.26460308820E-005                                                     F               0         Platform-RefPt X rotation acceleration, node 1, rad/s^2
         35     3.91350886275E-006                                                     F               0         Platform-RefPt Y rotation acceleration, node 1, rad/s^2
         36     9.87721159618E-006                                                     F               0         Platform-RefPt Z rotation acceleration, node 1, rad/s^2
         37     0.00000000000E+000                                                     F               0         Extended input: wave elevation at platform ref point, m

Order of outputs:
        Row   Operating Point                                                   Rotating Frame? Derivative Order Description
   ---------- ---------------                                                   --------------- ---------------- -----------
          1     0.00000000000E+000                                                     F               0         Wave1Elev, (m)
          2    -5.89724531250E+004                                                     F               0         HydroFxi, (N)
          3    -4.51225158691E+002                                                     F               0         HydroFyi, (N)
          4     2.03963344000E+008                                                     F               0         HydroFzi, (N)
          5    -1.10546064000E+008                                                     F               0         HydroMxi, (N-m)
          6    -2.41225760000E+008                                                     F               0         HydroMyi, (N-m)
          7    -1.93507468750E+005                                                     F               0         HydroMzi, (N-m)


Linearized state matrices:

D: 7 x 37
     0.00000000000E+000   0.00000000000E+000   0.00000000000E+000   0.00000000000E+000   0.00000000000E+000   0.00000000000E+000   0.00000000000E+000   0.00000000000E+000   0.00000000000E+000   0.00000000000E+000   0.00000000000E+000   0.00000000000E+000   0.00000000000E+000   0.00000000000E+000   0.00000000000E+000   0.00000000000E+000   0.00000000000E+000   0.00000000000E+000   0.00000000000E+000   0.00000000000E+000   0.00000000000E+000   0.00000000000E+000   0.00000000000E+000   0.00000000000E+000   0.00000000000E+000   0.00000000000E+000   0.00000000000E+000   0.00000000000E+000   0.00000000000E+000   0.00000000000E+000   0.00000000000E+000   0.00000000000E+000   0.00000000000E+000   0.00000000000E+000   0.00000000000E+000   0.00000000000E+000   0.00000000000E+000
    -6.85995498612E+003   0.00000000000E+000   0.00000000000E+000   0.00000000000E+000   0.00000000000E+000   0.00000000000E+000  -2.82173096459E+005   0.00000000000E+000   0.00000000000E+000   0.00000000000E+000   0.00000000000E+000   0.00000000000E+000  -9.38083896931E+006   0.00000000000E+000   1.99671965511E+001   0.00000000000E+000   9.82680351759E+007   0.00000000000E+000   0.00000000000E+000   0.00000000000E+000   0.00000000000E+000   0.00000000000E+000   0.00000000000E+000   0.00000000000E+000   0.00000000000E+000   0.00000000000E+000   0.00000000000E+000   0.00000000000E+000   0.00000000000E+000   0.00000000000E+000   0.00000000000E+000   0.00000000000E+000   0.00000000000E+000   0.00000000000E+000   0.00000000000E+000   0.00000000000E+000   0.00000000000E+000
     0.00000000000E+000   0.00000000000E+000   0.00000000000E+000   0.00000000000E+000   0.00000000000E+000   0.00000000000E+000   0.00000000000E+000  -2.82174375383E+005   0.00000000000E+000   0.00000000000E+000   0.00000000000E+000   0.00000000000E+000   0.00000000000E+000  -9.38088705685E+006   0.00000000000E+000  -9.82662446828E+007   0.00000000000E+000   1.78567942486E+003   0.00000000000E+000   0.00000000000E+000   0.00000000000E+000   0.00000000000E+000   0.00000000000E+000   0.00000000000E+000   0.00000000000E+000   0.00000000000E+000   0.00000000000E+000   0.00000000000E+000   0.00000000000E+000   0.00000000000E+000   0.00000000000E+000   0.00000000000E+000   0.00000000000E+000   0.00000000000E+000   0.00000000000E+000   0.00000000000E+000   0.00000000000E+000
     0.00000000000E+000   0.00000000000E+000  -4.39481570682E+006   0.00000000000E+000   3.66692991724E+003   0.00000000000E+000   0.00000000000E+000   0.00000000000E+000  -8.06855580480E+005   0.00000000000E+000   2.29183119828E+002   0.00000000000E+000   0.00000000000E+000   0.00000000000E+000  -2.41346206440E+007   2.29183119828E+002   1.78762833466E+004   0.00000000000E+000   0.00000000000E+000   0.00000000000E+000   0.00000000000E+000   0.00000000000E+000   0.00000000000E+000   0.00000000000E+000   0.00000000000E+000   0.00000000000E+000   0.00000000000E+000   0.00000000000E+000   0.00000000000E+000   0.00000000000E+000   0.00000000000E+000   0.00000000000E+000   0.00000000000E+000   0.00000000000E+000   0.00000000000E+000   0.00000000000E+000   0.00000000000E+000
     0.00000000000E+000   2.03963327544E+008   4.58366260620E+002  -2.13421463291E+009   0.00000000000E+000   8.86938673733E+004   0.00000000000E+000   0.00000000000E+000   0.00000000000E+000  -2.78327589598E+009   0.00000000000E+000   0.00000000000E+000   0.00000000000E+000  -9.82009770033E+007   0.00000000000E+000  -1.13246530020E+010   0.00000000000E+000   5.29413006802E+004   0.00000000000E+000  -2.03963327544E+008  -4.58366260620E+002   0.00000000000E+000   0.00000000000E+000   0.00000000000E+000   0.00000000000E+000   0.00000000000E+000   0.00000000000E+000   0.00000000000E+000   0.00000000000E+000   0.00000000000E+000   0.00000000000E+000   0.00000000000E+000   0.00000000000E+000   0.00000000000E+000   0.00000000000E+000   0.00000000000E+000   0.00000000000E+000
    -2.03963360284E+008   0.00000000000E+000  -5.49384703800E+004   0.00000000000E+000  -2.13398086613E+009   0.00000000000E+000   0.00000000000E+000   0.00000000000E+000   0.00000000000E+000   0.00000000000E+000  -2.78327429170E+009   0.00000000000E+000   9.82037272008E+007   0.00000000000E+000   1.93168638404E+004  -2.29183119828E+002  -1.13240552924E+010   0.00000000000E+000   2.03963360284E+008   0.00000000000E+000   5.89328049369E+004   0.00000000000E+000   0.00000000000E+000   0.00000000000E+000   0.00000000000E+000   0.00000000000E+000   0.00000000000E+000   0.00000000000E+000   0.00000000000E+000   0.00000000000E+000   0.00000000000E+000   0.00000000000E+000   0.00000000000E+000   0.00000000000E+000   0.00000000000E+000   0.00000000000E+000   0.00000000000E+000
    -4.51204287798E+002   5.89724515721E+004   0.00000000000E+000   0.00000000000E+000   0.00000000000E+000   0.00000000000E+000   0.00000000000E+000   0.00000000000E+000   0.00000000000E+000   0.00000000000E+000   0.00000000000E+000  -2.51327388742E+009   0.00000000000E+000   1.55382837149E+003   0.00000000000E+000   4.40409831741E+004   0.00000000000E+000  -1.95913504720E+010   4.51204287798E+002  -5.89724515721E+004   0.00000000000E+000   0.00000000000E+000   0.00000000000E+000   0.00000000000E+000   0.00000000000E+000   0.00000000000E+000   0.00000000000E+000   0.00000000000E+000   0.00000000000E+000   0.00000000000E+000   0.00000000000E+000   0.00000000000E+000   0.00000000000E+000   0.00000000000E+000   0.00000000000E+000   0.00000000000E+000   0.00000000000E+000
