
Linearized model: Predictions were generated on 31-Jan-2024 at 12:35:17 using OpenFAST, compiled as a 64-bit application using single precision at commit v3.5.1
 linked with  NWTC Subroutine Library; ElastoDyn; InflowWind; AeroDyn; ServoDyn; HydroDyn; MAP++ (<1.20.10>, <Oct-20-2023>)

Description from the FAST input file: CCT-9 Campign 4 model. Input files to be run with OpenFAST 3.5.0. GitHub branch from Lu Wang (https://github.com/luwang00/openfast/tree/dev) compiled on March 7, 2023.

Simulation information:
   Simulation time:                   506.1750 s
   Rotor Speed:                         0.8937 rad/s
   Azimuth:                             6.2652 rad
   Wind Speed:                         10.0000 m/s
   Number of continuous states:         0
   Number of discrete states:           0
   Number of constraint states:         0
   Number of inputs:                 1746
   Number of outputs:                   4
   Jacobians included in this file?    No

Order of inputs:
     Column   Operating Point                     Rotating Frame? Derivative Order Description
   ---------- ---------------                     --------------- ---------------- -----------
          1    8.509E+00                                 F               0         Tower X translation displacement, node 1, m
          2   -1.355E+00                                 F               0         Tower Y translation displacement, node 1, m
          3   -1.019E-01                                 F               0         Tower Z translation displacement, node 1, m
          4    8.746E+00                                 F               0         Tower X translation displacement, node 2, m
          5   -1.887E+00                                 F               0         Tower Y translation displacement, node 2, m
          6   -1.157E-01                                 F               0         Tower Z translation displacement, node 2, m
          7    8.996E+00                                 F               0         Tower X translation displacement, node 3, m
          8   -2.420E+00                                 F               0         Tower Y translation displacement, node 3, m
          9   -1.297E-01                                 F               0         Tower Z translation displacement, node 3, m
         10    9.256E+00                                 F               0         Tower X translation displacement, node 4, m
         11   -2.952E+00                                 F               0         Tower Y translation displacement, node 4, m
         12   -1.439E-01                                 F               0         Tower Z translation displacement, node 4, m
         13    9.523E+00                                 F               0         Tower X translation displacement, node 5, m
         14   -3.485E+00                                 F               0         Tower Y translation displacement, node 5, m
         15   -1.582E-01                                 F               0         Tower Z translation displacement, node 5, m
         16    9.797E+00                                 F               0         Tower X translation displacement, node 6, m
         17   -4.017E+00                                 F               0         Tower Y translation displacement, node 6, m
         18   -1.728E-01                                 F               0         Tower Z translation displacement, node 6, m
         19    1.007E+01                                 F               0         Tower X translation displacement, node 7, m
         20   -4.549E+00                                 F               0         Tower Y translation displacement, node 7, m
         21   -1.874E-01                                 F               0         Tower Z translation displacement, node 7, m
         22    1.036E+01                                 F               0         Tower X translation displacement, node 8, m
         23   -5.082E+00                                 F               0         Tower Y translation displacement, node 8, m
         24   -2.020E-01                                 F               0         Tower Z translation displacement, node 8, m
         25    1.064E+01                                 F               0         Tower X translation displacement, node 9, m
         26   -5.614E+00                                 F               0         Tower Y translation displacement, node 9, m
         27   -2.168E-01                                 F               0         Tower Z translation displacement, node 9, m
         28    1.092E+01                                 F               0         Tower X translation displacement, node 10, m
         29   -6.146E+00                                 F               0         Tower Y translation displacement, node 10, m
         30   -2.315E-01                                 F               0         Tower Z translation displacement, node 10, m
         31    1.121E+01                                 F               0         Tower X translation displacement, node 11, m
         32   -6.679E+00                                 F               0         Tower Y translation displacement, node 11, m
         33   -2.463E-01                                 F               0         Tower Z translation displacement, node 11, m
         34    9.998E-01,  7.496E-03, -1.841E-02         F               0         Tower X orientation angle, node 1, rad
         35   -6.694E-03,  9.990E-01,  4.325E-02         F               0         Tower Y orientation angle, node 1, rad
         36    1.872E-02, -4.312E-02,  9.989E-01         F               0         Tower Z orientation angle, node 1, rad
         37    9.998E-01,  7.540E-03, -1.943E-02         F               0         Tower X orientation angle, node 2, rad
         38   -6.694E-03,  9.990E-01,  4.325E-02         F               0         Tower Y orientation angle, node 2, rad
         39    1.974E-02, -4.311E-02,  9.989E-01         F               0         Tower Z orientation angle, node 2, rad
         40    9.998E-01,  7.578E-03, -2.030E-02         F               0         Tower X orientation angle, node 3, rad
         41   -6.694E-03,  9.990E-01,  4.325E-02         F               0         Tower Y orientation angle, node 3, rad
         42    2.061E-02, -4.310E-02,  9.989E-01         F               0         Tower Z orientation angle, node 3, rad
         43    9.998E-01,  7.609E-03, -2.102E-02         F               0         Tower X orientation angle, node 4, rad
         44   -6.694E-03,  9.990E-01,  4.325E-02         F               0         Tower Y orientation angle, node 4, rad
         45    2.133E-02, -4.310E-02,  9.988E-01         F               0         Tower Z orientation angle, node 4, rad
         46    9.997E-01,  7.633E-03, -2.159E-02         F               0         Tower X orientation angle, node 5, rad
         47   -6.694E-03,  9.990E-01,  4.325E-02         F               0         Tower Y orientation angle, node 5, rad
         48    2.190E-02, -4.309E-02,  9.988E-01         F               0         Tower Z orientation angle, node 5, rad
         49    9.997E-01,  7.652E-03, -2.202E-02         F               0         Tower X orientation angle, node 6, rad
         50   -6.694E-03,  9.990E-01,  4.325E-02         F               0         Tower Y orientation angle, node 6, rad
         51    2.233E-02, -4.309E-02,  9.988E-01         F               0         Tower Z orientation angle, node 6, rad
         52    9.997E-01,  7.665E-03, -2.233E-02         F               0         Tower X orientation angle, node 7, rad
         53   -6.694E-03,  9.990E-01,  4.325E-02         F               0         Tower Y orientation angle, node 7, rad
         54    2.264E-02, -4.309E-02,  9.988E-01         F               0         Tower Z orientation angle, node 7, rad
         55    9.997E-01,  7.674E-03, -2.253E-02         F               0         Tower X orientation angle, node 8, rad
         56   -6.694E-03,  9.990E-01,  4.325E-02         F               0         Tower Y orientation angle, node 8, rad
         57    2.284E-02, -4.308E-02,  9.988E-01         F               0         Tower Z orientation angle, node 8, rad
         58    9.997E-01,  7.679E-03, -2.266E-02         F               0         Tower X orientation angle, node 9, rad
         59   -6.694E-03,  9.990E-01,  4.325E-02         F               0         Tower Y orientation angle, node 9, rad
         60    2.297E-02, -4.308E-02,  9.988E-01         F               0         Tower Z orientation angle, node 9, rad
         61    9.997E-01,  7.682E-03, -2.273E-02         F               0         Tower X orientation angle, node 10, rad
         62   -6.694E-03,  9.990E-01,  4.325E-02         F               0         Tower Y orientation angle, node 10, rad
         63    2.304E-02, -4.308E-02,  9.988E-01         F               0         Tower Z orientation angle, node 10, rad
         64    9.997E-01,  7.684E-03, -2.276E-02         F               0         Tower X orientation angle, node 11, rad
         65   -6.694E-03,  9.990E-01,  4.325E-02         F               0         Tower Y orientation angle, node 11, rad
         66    2.307E-02, -4.308E-02,  9.988E-01         F               0         Tower Z orientation angle, node 11, rad
         67   -2.322E-03                                 F               0         Tower X translation velocity, node 1, m/s
         68   -4.769E-07                                 F               0         Tower Y translation velocity, node 1, m/s
         69   -8.083E-03                                 F               0         Tower Z translation velocity, node 1, m/s
         70   -2.312E-03                                 F               0         Tower X translation velocity, node 2, m/s
         71   -7.245E-07                                 F               0         Tower Y translation velocity, node 2, m/s
         72   -8.084E-03                                 F               0         Tower Z translation velocity, node 2, m/s
         73   -2.274E-03                                 F               0         Tower X translation velocity, node 3, m/s
         74   -7.781E-07                                 F               0         Tower Y translation velocity, node 3, m/s
         75   -8.084E-03                                 F               0         Tower Z translation velocity, node 3, m/s
         76   -2.213E-03                                 F               0         Tower X translation velocity, node 4, m/s
         77   -6.694E-07                                 F               0         Tower Y translation velocity, node 4, m/s
         78   -8.086E-03                                 F               0         Tower Z translation velocity, node 4, m/s
         79   -2.131E-03                                 F               0         Tower X translation velocity, node 5, m/s
         80   -4.124E-07                                 F               0         Tower Y translation velocity, node 5, m/s
         81   -8.087E-03                                 F               0         Tower Z translation velocity, node 5, m/s
         82   -2.031E-03                                 F               0         Tower X translation velocity, node 6, m/s
         83   -2.261E-08                                 F               0         Tower Y translation velocity, node 6, m/s
         84   -8.090E-03                                 F               0         Tower Z translation velocity, node 6, m/s
         85   -1.917E-03                                 F               0         Tower X translation velocity, node 7, m/s
         86    4.746E-07                                 F               0         Tower Y translation velocity, node 7, m/s
         87   -8.092E-03                                 F               0         Tower Z translation velocity, node 7, m/s
         88   -1.789E-03                                 F               0         Tower X translation velocity, node 8, m/s
         89    1.071E-06                                 F               0         Tower Y translation velocity, node 8, m/s
         90   -8.095E-03                                 F               0         Tower Z translation velocity, node 8, m/s
         91   -1.650E-03                                 F               0         Tower X translation velocity, node 9, m/s
         92    1.748E-06                                 F               0         Tower Y translation velocity, node 9, m/s
         93   -8.098E-03                                 F               0         Tower Z translation velocity, node 9, m/s
         94   -1.504E-03                                 F               0         Tower X translation velocity, node 10, m/s
         95    2.483E-06                                 F               0         Tower Y translation velocity, node 10, m/s
         96   -8.102E-03                                 F               0         Tower Z translation velocity, node 10, m/s
         97   -1.353E-03                                 F               0         Tower X translation velocity, node 11, m/s
         98    3.254E-06                                 F               0         Tower Y translation velocity, node 11, m/s
         99   -8.105E-03                                 F               0         Tower Z translation velocity, node 11, m/s
        100    1.139E+01                                 F               0         Hub X translation displacement, node 1, m
        101   -7.100E+00                                 F               0         Hub Y translation displacement, node 1, m
        102   -9.808E-03                                 F               0         Hub Z translation displacement, node 1, m
        103    9.918E-01,  1.214E-02, -1.270E-01         F               0         Hub X orientation angle, node 1, rad
        104   -8.986E-03,  9.996E-01,  2.541E-02         F               0         Hub Y orientation angle, node 1, rad
        105    1.273E-01, -2.406E-02,  9.916E-01         F               0         Hub Z orientation angle, node 1, rad
        106    8.864E-01                                 F               0         Hub X rotation velocity, node 1, rad/s
        107    1.087E-02                                 F               0         Hub Y rotation velocity, node 1, rad/s
        108   -1.135E-01                                 F               0         Hub Z rotation velocity, node 1, rad/s
        109    9.917E-01, -1.752E-02, -1.277E-01         F               0         Blade root 1 X orientation angle, node 1, rad
        110    2.044E-02,  9.996E-01,  2.163E-02         F               0         Blade root 1 Y orientation angle, node 1, rad
        111    1.273E-01, -2.406E-02,  9.916E-01         F               0         Blade root 1 Z orientation angle, node 1, rad
        112    9.880E-01,  2.759E-02, -1.521E-01         F               0         Blade root 2 X orientation angle, node 1, rad
        113    1.441E-01, -5.201E-01,  8.419E-01         F               0         Blade root 2 Y orientation angle, node 1, rad
        114   -5.587E-02, -8.537E-01, -5.178E-01         F               0         Blade root 2 Z orientation angle, node 1, rad
        115    9.945E-01,  2.635E-02, -1.011E-01         F               0         Blade root 3 X orientation angle, node 1, rad
        116   -7.628E-02, -4.784E-01, -8.748E-01         F               0         Blade root 3 Y orientation angle, node 1, rad
        117   -7.143E-02,  8.777E-01, -4.738E-01         F               0         Blade root 3 Z orientation angle, node 1, rad
        118    1.152E+01                                 F               0         Blade 1 X translation displacement, node 1, m
        119   -7.233E+00                                 F               0         Blade 1 Y translation displacement, node 1, m
        120   -2.616E-02                                 F               0         Blade 1 Z translation displacement, node 1, m
        121    1.155E+01                                 F               0         Blade 1 X translation displacement, node 2, m
        122   -7.265E+00                                 F               0         Blade 1 Y translation displacement, node 2, m
        123   -3.009E-02                                 F               0         Blade 1 Z translation displacement, node 2, m
        124    1.196E+01                                 F               0         Blade 1 X translation displacement, node 3, m
        125   -7.702E+00                                 F               0         Blade 1 Y translation displacement, node 3, m
        126   -8.364E-02                                 F               0         Blade 1 Z translation displacement, node 3, m
        127    1.205E+01                                 F               0         Blade 1 X translation displacement, node 4, m
        128   -7.795E+00                                 F               0         Blade 1 Y translation displacement, node 4, m
        129   -9.505E-02                                 F               0         Blade 1 Z translation displacement, node 4, m
        130    1.214E+01                                 F               0         Blade 1 X translation displacement, node 5, m
        131   -7.888E+00                                 F               0         Blade 1 Y translation displacement, node 5, m
        132   -1.065E-01                                 F               0         Blade 1 Z translation displacement, node 5, m
        133    1.223E+01                                 F               0         Blade 1 X translation displacement, node 6, m
        134   -7.981E+00                                 F               0         Blade 1 Y translation displacement, node 6, m
        135   -1.179E-01                                 F               0         Blade 1 Z translation displacement, node 6, m
        136    1.232E+01                                 F               0         Blade 1 X translation displacement, node 7, m
        137   -8.074E+00                                 F               0         Blade 1 Y translation displacement, node 7, m
        138   -1.293E-01                                 F               0         Blade 1 Z translation displacement, node 7, m
        139    1.240E+01                                 F               0         Blade 1 X translation displacement, node 8, m
        140   -8.167E+00                                 F               0         Blade 1 Y translation displacement, node 8, m
        141   -1.407E-01                                 F               0         Blade 1 Z translation displacement, node 8, m
        142    1.249E+01                                 F               0         Blade 1 X translation displacement, node 9, m
        143   -8.260E+00                                 F               0         Blade 1 Y translation displacement, node 9, m
        144   -1.521E-01                                 F               0         Blade 1 Z translation displacement, node 9, m
        145    1.258E+01                                 F               0         Blade 1 X translation displacement, node 10, m
        146   -8.353E+00                                 F               0         Blade 1 Y translation displacement, node 10, m
        147   -1.635E-01                                 F               0         Blade 1 Z translation displacement, node 10, m
        148    1.267E+01                                 F               0         Blade 1 X translation displacement, node 11, m
        149   -8.447E+00                                 F               0         Blade 1 Y translation displacement, node 11, m
        150   -1.749E-01                                 F               0         Blade 1 Z translation displacement, node 11, m
        151    1.276E+01                                 F               0         Blade 1 X translation displacement, node 12, m
        152   -8.540E+00                                 F               0         Blade 1 Y translation displacement, node 12, m
        153   -1.863E-01                                 F               0         Blade 1 Z translation displacement, node 12, m
        154    1.284E+01                                 F               0         Blade 1 X translation displacement, node 13, m
        155   -8.633E+00                                 F               0         Blade 1 Y translation displacement, node 13, m
        156   -1.977E-01                                 F               0         Blade 1 Z translation displacement, node 13, m
        157    1.293E+01                                 F               0         Blade 1 X translation displacement, node 14, m
        158   -8.726E+00                                 F               0         Blade 1 Y translation displacement, node 14, m
        159   -2.091E-01                                 F               0         Blade 1 Z translation displacement, node 14, m
        160    1.302E+01                                 F               0         Blade 1 X translation displacement, node 15, m
        161   -8.819E+00                                 F               0         Blade 1 Y translation displacement, node 15, m
        162   -2.206E-01                                 F               0         Blade 1 Z translation displacement, node 15, m
        163    1.311E+01                                 F               0         Blade 1 X translation displacement, node 16, m
        164   -8.912E+00                                 F               0         Blade 1 Y translation displacement, node 16, m
        165   -2.320E-01                                 F               0         Blade 1 Z translation displacement, node 16, m
        166    1.320E+01                                 F               0         Blade 1 X translation displacement, node 17, m
        167   -9.005E+00                                 F               0         Blade 1 Y translation displacement, node 17, m
        168   -2.434E-01                                 F               0         Blade 1 Z translation displacement, node 17, m
        169    1.328E+01                                 F               0         Blade 1 X translation displacement, node 18, m
        170   -9.098E+00                                 F               0         Blade 1 Y translation displacement, node 18, m
        171   -2.548E-01                                 F               0         Blade 1 Z translation displacement, node 18, m
        172    1.337E+01                                 F               0         Blade 1 X translation displacement, node 19, m
        173   -9.191E+00                                 F               0         Blade 1 Y translation displacement, node 19, m
        174   -2.662E-01                                 F               0         Blade 1 Z translation displacement, node 19, m
        175    1.346E+01                                 F               0         Blade 1 X translation displacement, node 20, m
        176   -9.284E+00                                 F               0         Blade 1 Y translation displacement, node 20, m
        177   -2.776E-01                                 F               0         Blade 1 Z translation displacement, node 20, m
        178    1.355E+01                                 F               0         Blade 1 X translation displacement, node 21, m
        179   -9.377E+00                                 F               0         Blade 1 Y translation displacement, node 21, m
        180   -2.890E-01                                 F               0         Blade 1 Z translation displacement, node 21, m
        181    1.364E+01                                 F               0         Blade 1 X translation displacement, node 22, m
        182   -9.470E+00                                 F               0         Blade 1 Y translation displacement, node 22, m
        183   -3.004E-01                                 F               0         Blade 1 Z translation displacement, node 22, m
        184    1.372E+01                                 F               0         Blade 1 X translation displacement, node 23, m
        185   -9.563E+00                                 F               0         Blade 1 Y translation displacement, node 23, m
        186   -3.118E-01                                 F               0         Blade 1 Z translation displacement, node 23, m
        187    1.381E+01                                 F               0         Blade 1 X translation displacement, node 24, m
        188   -9.656E+00                                 F               0         Blade 1 Y translation displacement, node 24, m
        189   -3.232E-01                                 F               0         Blade 1 Z translation displacement, node 24, m
        190    1.390E+01                                 F               0         Blade 1 X translation displacement, node 25, m
        191   -9.749E+00                                 F               0         Blade 1 Y translation displacement, node 25, m
        192   -3.346E-01                                 F               0         Blade 1 Z translation displacement, node 25, m
        193    1.399E+01                                 F               0         Blade 1 X translation displacement, node 26, m
        194   -9.843E+00                                 F               0         Blade 1 Y translation displacement, node 26, m
        195   -3.461E-01                                 F               0         Blade 1 Z translation displacement, node 26, m
        196    1.408E+01                                 F               0         Blade 1 X translation displacement, node 27, m
        197   -9.936E+00                                 F               0         Blade 1 Y translation displacement, node 27, m
        198   -3.575E-01                                 F               0         Blade 1 Z translation displacement, node 27, m
        199    1.415E+01                                 F               0         Blade 1 X translation displacement, node 28, m
        200   -1.001E+01                                 F               0         Blade 1 Y translation displacement, node 28, m
        201   -3.671E-01                                 F               0         Blade 1 Z translation displacement, node 28, m
        202    8.732E-01, -4.714E-01, -1.235E-01         F               0         Blade 1 X orientation angle, node 1, rad
        203    4.704E-01,  8.816E-01, -3.900E-02         F               0         Blade 1 Y orientation angle, node 1, rad
        204    1.273E-01, -2.406E-02,  9.916E-01         F               0         Blade 1 Z orientation angle, node 1, rad
        205    8.732E-01, -4.714E-01, -1.235E-01         F               0         Blade 1 X orientation angle, node 2, rad
        206    4.704E-01,  8.816E-01, -3.900E-02         F               0         Blade 1 Y orientation angle, node 2, rad
        207    1.273E-01, -2.406E-02,  9.916E-01         F               0         Blade 1 Z orientation angle, node 2, rad
        208    9.598E-01, -2.490E-01, -1.293E-01         F               0         Blade 1 X orientation angle, node 3, rad
        209    2.500E-01,  9.682E-01, -8.605E-03         F               0         Blade 1 Y orientation angle, node 3, rad
        210    1.273E-01, -2.406E-02,  9.916E-01         F               0         Blade 1 Z orientation angle, node 3, rad
        211    9.695E-01, -2.079E-01, -1.295E-01         F               0         Blade 1 X orientation angle, node 4, rad
        212    2.093E-01,  9.779E-01, -3.139E-03         F               0         Blade 1 Y orientation angle, node 4, rad
        213    1.273E-01, -2.406E-02,  9.916E-01         F               0         Blade 1 Z orientation angle, node 4, rad
        214    9.759E-01, -1.754E-01, -1.296E-01         F               0         Blade 1 X orientation angle, node 5, rad
        215    1.770E-01,  9.842E-01,  1.157E-03         F               0         Blade 1 Y orientation angle, node 5, rad
        216    1.273E-01, -2.406E-02,  9.916E-01         F               0         Blade 1 Z orientation angle, node 5, rad
        217    9.803E-01, -1.492E-01, -1.295E-01         F               0         Blade 1 X orientation angle, node 6, rad
        218    1.511E-01,  9.885E-01,  4.593E-03         F               0         Blade 1 Y orientation angle, node 6, rad
        219    1.273E-01, -2.406E-02,  9.916E-01         F               0         Blade 1 Z orientation angle, node 6, rad
        220    9.834E-01, -1.276E-01, -1.293E-01         F               0         Blade 1 X orientation angle, node 7, rad
        221    1.297E-01,  9.915E-01,  7.416E-03         F               0         Blade 1 Y orientation angle, node 7, rad
        222    1.273E-01, -2.406E-02,  9.916E-01         F               0         Blade 1 Z orientation angle, node 7, rad
        223    9.855E-01, -1.096E-01, -1.292E-01         F               0         Blade 1 X orientation angle, node 8, rad
        224    1.118E-01,  9.937E-01,  9.763E-03         F               0         Blade 1 Y orientation angle, node 8, rad
        225    1.273E-01, -2.406E-02,  9.916E-01         F               0         Blade 1 Z orientation angle, node 8, rad
        226    9.871E-01, -9.432E-02, -1.290E-01         F               0         Blade 1 X orientation angle, node 9, rad
        227    9.663E-02,  9.953E-01,  1.175E-02         F               0         Blade 1 Y orientation angle, node 9, rad