
Linearized model: Predictions were generated on 31-Jan-2024 at 12:35:17 using OpenFAST, compiled as a 64-bit application using single precision at commit v3.5.1
 linked with  NWTC Subroutine Library; ElastoDyn; InflowWind; AeroDyn; ServoDyn; HydroDyn; MAP++ (<1.20.10>, <Oct-20-2023>)

Description from the FAST input file: CCT-9 Campign 4 model. Input files to be run with OpenFAST 3.5.0. GitHub branch from Lu Wang (https://github.com/luwang00/openfast/tree/dev) compiled on March 7, 2023.

Simulation information:
   Simulation time:                   506.6750 s
   Rotor Speed:                         0.8936 rad/s
   Azimuth:                             0.4288 rad
   Wind Speed:                         10.0000 m/s
   Number of continuous states:        12
   Number of discrete states:           0
   Number of constraint states:         0
   Number of inputs:                 1890
   Number of outputs:                  19
   Jacobians included in this file?    No

Order of continuous states:
   Row/Column Operating Point                     Rotating Frame? Derivative Order Description
   ---------- ---------------                     --------------- ---------------- -----------
          1    8.165E+00                                 F               2         Platform horizontal surge translation DOF (internal DOF index = DOF_Sg), m
          2   -8.556E-02                                 F               2         Platform vertical heave translation DOF (internal DOF index = DOF_Hv), m
          3    7.102E-03                                 F               2         Platform yaw rotation DOF (internal DOF index = DOF_Y), rad
          4    3.854E-01                                 F               2         1st tower fore-aft bending mode DOF (internal DOF index = DOF_TFA1), m
          5    1.286E-03                                 F               2         2nd tower fore-aft bending mode DOF (internal DOF index = DOF_TFA2), m
          6    5.141E+00                                 F               2         Variable speed generator DOF (internal DOF index = DOF_GeAz), rad
          7   -2.475E-03                                 F               2         First time derivative of Platform horizontal surge translation DOF (internal DOF index = DOF_Sg), m/s
          8   -7.618E-03                                 F               2         First time derivative of Platform vertical heave translation DOF (internal DOF index = DOF_Hv), m/s
          9   -1.993E-06                                 F               2         First time derivative of Platform yaw rotation DOF (internal DOF index = DOF_Y), rad/s
         10    7.453E-04                                 F               2         First time derivative of 1st tower fore-aft bending mode DOF (internal DOF index = DOF_TFA1), m/s
         11   -8.859E-07                                 F               2         First time derivative of 2nd tower fore-aft bending mode DOF (internal DOF index = DOF_TFA2), m/s
         12    8.936E-01                                 F               2         First time derivative of Variable speed generator DOF (internal DOF index = DOF_GeAz), rad/s

Order of continuous state derivatives:
   Row/Column Operating Point                     Rotating Frame? Derivative Order Description
   ---------- ---------------                     --------------- ---------------- -----------
          1   -2.475E-03                                 F               2         First time derivative of Platform horizontal surge translation DOF (internal DOF index = DOF_Sg), m/s
          2   -7.618E-03                                 F               2         First time derivative of Platform vertical heave translation DOF (internal DOF index = DOF_Hv), m/s
          3   -1.993E-06                                 F               2         First time derivative of Platform yaw rotation DOF (internal DOF index = DOF_Y), rad/s
          4    7.453E-04                                 F               2         First time derivative of 1st tower fore-aft bending mode DOF (internal DOF index = DOF_TFA1), m/s
          5   -8.859E-07                                 F               2         First time derivative of 2nd tower fore-aft bending mode DOF (internal DOF index = DOF_TFA2), m/s
          6    8.936E-01                                 F               2         First time derivative of Variable speed generator DOF (internal DOF index = DOF_GeAz), rad/s
          7   -2.771E-04                                 F               2         First time derivative of First time derivative of Platform horizontal surge translation DOF (internal DOF index = DOF_Sg), m/s/s
          8    1.158E-03                                 F               2         First time derivative of First time derivative of Platform vertical heave translation DOF (internal DOF index = DOF_Hv), m/s/s
          9   -8.371E-07                                 F               2         First time derivative of First time derivative of Platform yaw rotation DOF (internal DOF index = DOF_Y), rad/s/s
         10   -7.728E-04                                 F               2         First time derivative of First time derivative of 1st tower fore-aft bending mode DOF (internal DOF index = DOF_TFA1), m/s/s
         11    3.510E-06                                 F               2         First time derivative of First time derivative of 2nd tower fore-aft bending mode DOF (internal DOF index = DOF_TFA2), m/s/s
         12   -8.197E-05                                 F               2         First time derivative of First time derivative of Variable speed generator DOF (internal DOF index = DOF_GeAz), rad/s/s

Order of inputs:
     Column   Operating Point                     Rotating Frame? Derivative Order Description
   ---------- ---------------                     --------------- ---------------- -----------
          1    8.020E+01                                 F               0         Blade 1 X force, node 1, N
          2    8.321E+01                                 F               0         Blade 1 Y force, node 1, N
          3    3.196E+01                                 F               0         Blade 1 Z force, node 1, N
          4    3.298E+02                                 F               0         Blade 1 X force, node 2, N
          5    1.564E+02                                 F               0         Blade 1 Y force, node 2, N
          6    3.602E+01                                 F               0         Blade 1 Z force, node 2, N
          7    4.193E+02                                 F               0         Blade 1 X force, node 3, N
          8    1.027E+02                                 F               0         Blade 1 Y force, node 3, N
          9   -3.613E+00                                 F               0         Blade 1 Z force, node 3, N
         10    5.440E+02                                 F               0         Blade 1 X force, node 4, N
         11    6.828E+01                                 F               0         Blade 1 Y force, node 4, N
         12   -3.803E+01                                 F               0         Blade 1 Z force, node 4, N
         13    6.686E+02                                 F               0         Blade 1 X force, node 5, N
         14    3.387E+01                                 F               0         Blade 1 Y force, node 5, N
         15   -7.246E+01                                 F               0         Blade 1 Z force, node 5, N
         16    7.933E+02                                 F               0         Blade 1 X force, node 6, N
         17   -5.311E-01                                 F               0         Blade 1 Y force, node 6, N
         18   -1.069E+02                                 F               0         Blade 1 Z force, node 6, N
         19    9.179E+02                                 F               0         Blade 1 X force, node 7, N
         20   -3.493E+01                                 F               0         Blade 1 Y force, node 7, N
         21   -1.413E+02                                 F               0         Blade 1 Z force, node 7, N
         22    1.043E+03                                 F               0         Blade 1 X force, node 8, N
         23   -6.934E+01                                 F               0         Blade 1 Y force, node 8, N
         24   -1.757E+02                                 F               0         Blade 1 Z force, node 8, N
         25    1.167E+03                                 F               0         Blade 1 X force, node 9, N
         26   -1.037E+02                                 F               0         Blade 1 Y force, node 9, N
         27   -2.101E+02                                 F               0         Blade 1 Z force, node 9, N
         28    1.292E+03                                 F               0         Blade 1 X force, node 10, N
         29   -1.381E+02                                 F               0         Blade 1 Y force, node 10, N
         30   -2.446E+02                                 F               0         Blade 1 Z force, node 10, N
         31    1.417E+03                                 F               0         Blade 1 X force, node 11, N
         32   -1.725E+02                                 F               0         Blade 1 Y force, node 11, N
         33   -2.790E+02                                 F               0         Blade 1 Z force, node 11, N
         34    1.541E+03                                 F               0         Blade 1 X force, node 12, N
         35   -2.070E+02                                 F               0         Blade 1 Y force, node 12, N
         36   -3.134E+02                                 F               0         Blade 1 Z force, node 12, N
         37    1.666E+03                                 F               0         Blade 1 X force, node 13, N
         38   -2.414E+02                                 F               0         Blade 1 Y force, node 13, N
         39   -3.478E+02                                 F               0         Blade 1 Z force, node 13, N
         40    1.791E+03                                 F               0         Blade 1 X force, node 14, N
         41   -2.758E+02                                 F               0         Blade 1 Y force, node 14, N
         42   -3.822E+02                                 F               0         Blade 1 Z force, node 14, N
         43    1.915E+03                                 F               0         Blade 1 X force, node 15, N
         44   -3.102E+02                                 F               0         Blade 1 Y force, node 15, N
         45   -4.167E+02                                 F               0         Blade 1 Z force, node 15, N
         46    2.040E+03                                 F               0         Blade 1 X force, node 16, N
         47   -3.446E+02                                 F               0         Blade 1 Y force, node 16, N
         48   -4.511E+02                                 F               0         Blade 1 Z force, node 16, N
         49    2.512E+03                                 F               0         Blade 1 X force, node 17, N
         50   -4.376E+02                                 F               0         Blade 1 Y force, node 17, N
         51   -5.623E+02                                 F               0         Blade 1 Z force, node 17, N
         52    1.932E+03                                 F               0         Blade 1 X force, node 18, N
         53   -3.239E+02                                 F               0         Blade 1 Y force, node 18, N
         54   -4.260E+02                                 F               0         Blade 1 Z force, node 18, N
         55    2.391E+03                                 F               0         Blade 1 X force, node 19, N
         56   -3.779E+02                                 F               0         Blade 1 Y force, node 19, N
         57   -5.154E+02                                 F               0         Blade 1 Z force, node 19, N
         58    2.054E+03                                 F               0         Blade 1 X force, node 20, N
         59   -3.068E+02                                 F               0         Blade 1 Y force, node 20, N
         60   -4.337E+02                                 F               0         Blade 1 Z force, node 20, N
         61    3.060E+03                                 F               0         Blade 1 X force, node 21, N
         62   -4.274E+02                                 F               0         Blade 1 Y force, node 21, N
         63   -6.308E+02                                 F               0         Blade 1 Z force, node 21, N
         64    2.723E+03                                 F               0         Blade 1 X force, node 22, N
         65   -3.551E+02                                 F               0         Blade 1 Y force, node 22, N
         66   -5.484E+02                                 F               0         Blade 1 Z force, node 22, N
         67    2.817E+03                                 F               0         Blade 1 X force, node 23, N
         68   -3.449E+02                                 F               0         Blade 1 Y force, node 23, N
         69   -5.557E+02                                 F               0         Blade 1 Z force, node 23, N
         70    2.961E+03                                 F               0         Blade 1 X force, node 24, N
         71   -3.404E+02                                 F               0         Blade 1 Y force, node 24, N
         72   -5.728E+02                                 F               0         Blade 1 Z force, node 24, N
         73    3.054E+03                                 F               0         Blade 1 X force, node 25, N
         74   -3.294E+02                                 F               0         Blade 1 Y force, node 25, N
         75   -5.795E+02                                 F               0         Blade 1 Z force, node 25, N
         76    3.163E+03                                 F               0         Blade 1 X force, node 26, N
         77   -3.202E+02                                 F               0         Blade 1 Y force, node 26, N
         78   -5.895E+02                                 F               0         Blade 1 Z force, node 26, N
         79    3.812E+03                                 F               0         Blade 1 X force, node 27, N
         80   -3.609E+02                                 F               0         Blade 1 Y force, node 27, N
         81   -6.977E+02                                 F               0         Blade 1 Z force, node 27, N
         82    2.841E+03                                 F               0         Blade 1 X force, node 28, N
         83   -2.516E+02                                 F               0         Blade 1 Y force, node 28, N
         84   -5.110E+02                                 F               0         Blade 1 Z force, node 28, N
         85    3.491E+03                                 F               0         Blade 1 X force, node 29, N
         86   -2.918E+02                                 F               0         Blade 1 Y force, node 29, N
         87   -6.189E+02                                 F               0         Blade 1 Z force, node 29, N
         88    2.982E+03                                 F               0         Blade 1 X force, node 30, N
         89   -2.354E+02                                 F               0         Blade 1 Y force, node 30, N
         90   -5.216E+02                                 F               0         Blade 1 Z force, node 30, N
         91    4.327E+03                                 F               0         Blade 1 X force, node 31, N
         92   -3.189E+02                                 F               0         Blade 1 Y force, node 31, N
         93   -7.453E+02                                 F               0         Blade 1 Z force, node 31, N
         94    3.817E+03                                 F               0         Blade 1 X force, node 32, N
         95   -2.620E+02                                 F               0         Blade 1 Y force, node 32, N
         96   -6.475E+02                                 F               0         Blade 1 Z force, node 32, N
         97    3.925E+03                                 F               0         Blade 1 X force, node 33, N
         98   -2.518E+02                                 F               0         Blade 1 Y force, node 33, N
         99   -6.568E+02                                 F               0         Blade 1 Z force, node 33, N
        100    4.034E+03                                 F               0         Blade 1 X force, node 34, N
        101   -2.416E+02                                 F               0         Blade 1 Y force, node 34, N
        102   -6.661E+02                                 F               0         Blade 1 Z force, node 34, N
        103    4.142E+03                                 F               0         Blade 1 X force, node 35, N
        104   -2.313E+02                                 F               0         Blade 1 Y force, node 35, N
        105   -6.754E+02                                 F               0         Blade 1 Z force, node 35, N
        106    4.250E+03                                 F               0         Blade 1 X force, node 36, N
        107   -2.208E+02                                 F               0         Blade 1 Y force, node 36, N
        108   -6.845E+02                                 F               0         Blade 1 Z force, node 36, N
        109    5.099E+03                                 F               0         Blade 1 X force, node 37, N
        110   -2.449E+02                                 F               0         Blade 1 Y force, node 37, N
        111   -8.111E+02                                 F               0         Blade 1 Z force, node 37, N
        112    3.725E+03                                 F               0         Blade 1 X force, node 38, N
        113   -1.652E+02                                 F               0         Blade 1 Y force, node 38, N
        114   -5.854E+02                                 F               0         Blade 1 Z force, node 38, N
        115    4.575E+03                                 F               0         Blade 1 X force, node 39, N
        116   -1.892E+02                                 F               0         Blade 1 Y force, node 39, N
        117   -7.120E+02                                 F               0         Blade 1 Z force, node 39, N
        118    3.910E+03                                 F               0         Blade 1 X force, node 40, N
        119   -1.505E+02                                 F               0         Blade 1 Y force, node 40, N
        120   -6.027E+02                                 F               0         Blade 1 Z force, node 40, N
        121    5.567E+03                                 F               0         Blade 1 X force, node 41, N
        122   -1.962E+02                                 F               0         Blade 1 Y force, node 41, N
        123   -8.488E+02                                 F               0         Blade 1 Z force, node 41, N
        124    4.900E+03                                 F               0         Blade 1 X force, node 42, N
        125   -1.571E+02                                 F               0         Blade 1 Y force, node 42, N
        126   -7.391E+02                                 F               0         Blade 1 Z force, node 42, N
        127    5.007E+03                                 F               0         Blade 1 X force, node 43, N
        128   -1.462E+02                                 F               0         Blade 1 Y force, node 43, N
        129   -7.479E+02                                 F               0         Blade 1 Z force, node 43, N
        130    5.141E+03                                 F               0         Blade 1 X force, node 44, N
        131   -1.360E+02                                 F               0         Blade 1 Y force, node 44, N
        132   -7.607E+02                                 F               0         Blade 1 Z force, node 44, N
        133    5.194E+03                                 F               0         Blade 1 X force, node 45, N
        134   -1.237E+02                                 F               0         Blade 1 Y force, node 45, N
        135   -7.615E+02                                 F               0         Blade 1 Z force, node 45, N
        136    5.328E+03                                 F               0         Blade 1 X force, node 46, N
        137   -1.134E+02                                 F               0         Blade 1 Y force, node 46, N
        138   -7.743E+02                                 F               0         Blade 1 Z force, node 46, N
        139    6.389E+03                                 F               0         Blade 1 X force, node 47, N
        140   -1.194E+02                                 F               0         Blade 1 Y force, node 47, N
        141   -9.200E+02                                 F               0         Blade 1 Z force, node 47, N
        142    4.588E+03                                 F               0         Blade 1 X force, node 48, N
        143   -7.443E+01                                 F               0         Blade 1 Y force, node 48, N
        144   -6.547E+02                                 F               0         Blade 1 Z force, node 48, N
        145    5.648E+03                                 F               0         Blade 1 X force, node 49, N
        146   -8.029E+01                                 F               0         Blade 1 Y force, node 49, N
        147   -8.003E+02                                 F               0         Blade 1 Z force, node 49, N
        148    4.839E+03                                 F               0         Blade 1 X force, node 50, N
        149   -5.927E+01                                 F               0         Blade 1 Y force, node 50, N
        150   -6.807E+02                                 F               0         Blade 1 Z force, node 50, N
        151    6.778E+03                                 F               0         Blade 1 X force, node 51, N
        152   -6.800E+01                                 F               0         Blade 1 Y force, node 51, N
        153   -9.457E+02                                 F               0         Blade 1 Z force, node 51, N
        154    5.970E+03                                 F               0         Blade 1 X force, node 52, N
        155   -4.701E+01                                 F               0         Blade 1 Y force, node 52, N
        156   -8.264E+02                                 F               0         Blade 1 Z force, node 52, N
        157    6.078E+03                                 F               0         Blade 1 X force, node 53, N
        158   -3.595E+01                                 F               0         Blade 1 Y force, node 53, N
        159   -8.352E+02                                 F               0         Blade 1 Z force, node 53, N
        160    6.254E+03                                 F               0         Blade 1 X force, node 54, N
        161   -2.509E+01                                 F               0         Blade 1 Y force, node 54, N
        162   -8.533E+02                                 F               0         Blade 1 Z force, node 54, N
        163    6.225E+03                                 F               0         Blade 1 X force, node 55, N
        164   -1.347E+01                                 F               0         Blade 1 Y force, node 55, N
        165   -8.435E+02                                 F               0         Blade 1 Z force, node 55, N
        166    6.400E+03                                 F               0         Blade 1 X force, node 56, N
        167   -2.519E+00                                 F               0         Blade 1 Y force, node 56, N
        168   -8.614E+02                                 F               0         Blade 1 Z force, node 56, N
        169    7.686E+03                                 F               0         Blade 1 X force, node 57, N
        170    1.113E+01                                 F               0         Blade 1 Y force, node 57, N
        171   -1.027E+03                                 F               0         Blade 1 Z force, node 57, N
        172    5.437E+03                                 F               0         Blade 1 X force, node 58, N
        173    1.742E+01                                 F               0         Blade 1 Y force, node 58, N
        174   -7.216E+02                                 F               0         Blade 1 Z force, node 58, N
        175    6.722E+03                                 F               0         Blade 1 X force, node 59, N
        176    3.113E+01                                 F               0         Blade 1 Y force, node 59, N
        177   -8.874E+02                                 F               0         Blade 1 Z force, node 59, N
        178    5.784E+03                                 F               0         Blade 1 X force, node 60, N
        179    3.498E+01                                 F               0         Blade 1 Y force, node 60, N
        180   -7.592E+02                                 F               0         Blade 1 Z force, node 60, N
        181    7.982E+03                                 F               0         Blade 1 X force, node 61, N
        182    6.107E+01                                 F               0         Blade 1 Y force, node 61, N
        183   -1.041E+03                                 F               0         Blade 1 Z force, node 61, N
        184    7.041E+03                                 F               0         Blade 1 X force, node 62, N
        185    6.505E+01                                 F               0         Blade 1 Y force, node 62, N
        186   -9.128E+02                                 F               0         Blade 1 Z force, node 62, N
        187    7.147E+03                                 F               0         Blade 1 X force, node 63, N
        188    7.644E+01                                 F               0         Blade 1 Y force, node 63, N
        189   -9.211E+02                                 F               0         Blade 1 Z force, node 63, N
        190    7.374E+03                                 F               0         Blade 1 X force, node 64, N
        191    8.933E+01                                 F               0         Blade 1 Y force, node 64, N
        192   -9.450E+02                                 F               0         Blade 1 Z force, node 64, N
        193    7.239E+03                                 F               0         Blade 1 X force, node 65, N
        194    9.758E+01                                 F               0         Blade 1 Y force, node 65, N
        195   -9.226E+02                                 F               0         Blade 1 Z force, node 65, N
        196    7.468E+03                                 F               0         Blade 1 X force, node 66, N
        197    1.104E+02                                 F               0         Blade 1 Y force, node 66, N
        198   -9.469E+02                                 F               0         Blade 1 Z force, node 66, N
        199    8.989E+03                                 F               0         Blade 1 X force, node 67, N
        200    1.452E+02                                 F               0         Blade 1 Y force, node 67, N
        201   -1.133E+03                                 F               0         Blade 1 Z force, node 67, N
        202    6.272E+03                                 F               0         Blade 1 X force, node 68, N
        203    1.096E+02                                 F               0         Blade 1 Y force, node 68, N
        204   -7.866E+02                                 F               0         Blade 1 Z force, node 68, N
        205    7.791E+03                                 F               0         Blade 1 X force, node 69, N
        206    1.445E+02                                 F               0         Blade 1 Y force, node 69, N
        207   -9.727E+02                                 F               0         Blade 1 Z force, node 69, N
        208    6.735E+03                                 F               0         Blade 1 X force, node 70, N
        209    1.322E+02                                 F               0         Blade 1 Y force, node 70, N
        210   -8.371E+02                                 F               0         Blade 1 Z force, node 70, N
        211    9.165E+03                                 F               0         Blade 1 X force, node 71, N
        212    1.912E+02                                 F               0         Blade 1 Y force, node 71, N
        213   -1.133E+03                                 F               0         Blade 1 Z force, node 71, N
        214    8.106E+03                                 F               0         Blade 1 X force, node 72, N
        215    1.791E+02                                 F               0         Blade 1 Y force, node 72, N
        216   -9.972E+02                                 F               0         Blade 1 Z force, node 72, N
        217    8.208E+03                                 F               0         Blade 1 X force, node 73, N