
Linearized model: Predictions were generated on 31-Jan-2024 at 12:35:17 using OpenFAST, compiled as a 64-bit application using single precision at commit v3.5.1
 linked with  NWTC Subroutine Library; ElastoDyn; InflowWind; AeroDyn; ServoDyn; HydroDyn; MAP++ (<1.20.10>, <Oct-20-2023>)

Description from the FAST input file: CCT-9 Campign 4 model. Input files to be run with OpenFAST 3.5.0. GitHub branch from Lu Wang (https://github.com/luwang00/openfast/tree/dev) compiled on March 7, 2023.

Simulation information:
   Simulation time:                   508.4000 s
   Rotor Speed:                         0.8937 rad/s
   Azimuth:                             1.9703 rad
   Wind Speed:                         10.0000 m/s
   Number of continuous states:         0
   Number of discrete states:           0
   Number of constraint states:         0
   Number of inputs:                 1746
   Number of outputs:                   4
   Jacobians included in this file?    No

Order of inputs:
     Column   Operating Point                     Rotating Frame? Derivative Order Description
   ---------- ---------------                     --------------- ---------------- -----------
          1    8.504E+00                                 F               0         Tower X translation displacement, node 1, m
          2   -1.355E+00                                 F               0         Tower Y translation displacement, node 1, m
          3   -1.166E-01                                 F               0         Tower Z translation displacement, node 1, m
          4    8.740E+00                                 F               0         Tower X translation displacement, node 2, m
          5   -1.887E+00                                 F               0         Tower Y translation displacement, node 2, m
          6   -1.304E-01                                 F               0         Tower Z translation displacement, node 2, m
          7    8.990E+00                                 F               0         Tower X translation displacement, node 3, m
          8   -2.420E+00                                 F               0         Tower Y translation displacement, node 3, m
          9   -1.444E-01                                 F               0         Tower Z translation displacement, node 3, m
         10    9.250E+00                                 F               0         Tower X translation displacement, node 4, m
         11   -2.952E+00                                 F               0         Tower Y translation displacement, node 4, m
         12   -1.586E-01                                 F               0         Tower Z translation displacement, node 4, m
         13    9.518E+00                                 F               0         Tower X translation displacement, node 5, m
         14   -3.485E+00                                 F               0         Tower Y translation displacement, node 5, m
         15   -1.730E-01                                 F               0         Tower Z translation displacement, node 5, m
         16    9.791E+00                                 F               0         Tower X translation displacement, node 6, m
         17   -4.017E+00                                 F               0         Tower Y translation displacement, node 6, m
         18   -1.875E-01                                 F               0         Tower Z translation displacement, node 6, m
         19    1.007E+01                                 F               0         Tower X translation displacement, node 7, m
         20   -4.549E+00                                 F               0         Tower Y translation displacement, node 7, m
         21   -2.021E-01                                 F               0         Tower Z translation displacement, node 7, m
         22    1.035E+01                                 F               0         Tower X translation displacement, node 8, m
         23   -5.082E+00                                 F               0         Tower Y translation displacement, node 8, m
         24   -2.168E-01                                 F               0         Tower Z translation displacement, node 8, m
         25    1.063E+01                                 F               0         Tower X translation displacement, node 9, m
         26   -5.614E+00                                 F               0         Tower Y translation displacement, node 9, m
         27   -2.315E-01                                 F               0         Tower Z translation displacement, node 9, m
         28    1.092E+01                                 F               0         Tower X translation displacement, node 10, m
         29   -6.146E+00                                 F               0         Tower Y translation displacement, node 10, m
         30   -2.462E-01                                 F               0         Tower Z translation displacement, node 10, m
         31    1.120E+01                                 F               0         Tower X translation displacement, node 11, m
         32   -6.679E+00                                 F               0         Tower Y translation displacement, node 11, m
         33   -2.610E-01                                 F               0         Tower Z translation displacement, node 11, m
         34    9.998E-01,  7.492E-03, -1.841E-02         F               0         Tower X orientation angle, node 1, rad
         35   -6.689E-03,  9.990E-01,  4.325E-02         F               0         Tower Y orientation angle, node 1, rad
         36    1.872E-02, -4.312E-02,  9.989E-01         F               0         Tower Z orientation angle, node 1, rad
         37    9.998E-01,  7.535E-03, -1.943E-02         F               0         Tower X orientation angle, node 2, rad
         38   -6.689E-03,  9.990E-01,  4.325E-02         F               0         Tower Y orientation angle, node 2, rad
         39    1.974E-02, -4.311E-02,  9.989E-01         F               0         Tower Z orientation angle, node 2, rad
         40    9.998E-01,  7.573E-03, -2.031E-02         F               0         Tower X orientation angle, node 3, rad
         41   -6.689E-03,  9.990E-01,  4.325E-02         F               0         Tower Y orientation angle, node 3, rad
         42    2.061E-02, -4.310E-02,  9.989E-01         F               0         Tower Z orientation angle, node 3, rad
         43    9.998E-01,  7.604E-03, -2.102E-02         F               0         Tower X orientation angle, node 4, rad
         44   -6.689E-03,  9.990E-01,  4.325E-02         F               0         Tower Y orientation angle, node 4, rad
         45    2.133E-02, -4.310E-02,  9.988E-01         F               0         Tower Z orientation angle, node 4, rad
         46    9.997E-01,  7.629E-03, -2.159E-02         F               0         Tower X orientation angle, node 5, rad
         47   -6.689E-03,  9.990E-01,  4.325E-02         F               0         Tower Y orientation angle, node 5, rad
         48    2.190E-02, -4.309E-02,  9.988E-01         F               0         Tower Z orientation angle, node 5, rad
         49    9.997E-01,  7.647E-03, -2.203E-02         F               0         Tower X orientation angle, node 6, rad
         50   -6.689E-03,  9.990E-01,  4.325E-02         F               0         Tower Y orientation angle, node 6, rad
         51    2.234E-02, -4.309E-02,  9.988E-01         F               0         Tower Z orientation angle, node 6, rad
         52    9.997E-01,  7.661E-03, -2.233E-02         F               0         Tower X orientation angle, node 7, rad
         53   -6.689E-03,  9.990E-01,  4.325E-02         F               0         Tower Y orientation angle, node 7, rad
         54    2.264E-02, -4.309E-02,  9.988E-01         F               0         Tower Z orientation angle, node 7, rad
         55    9.997E-01,  7.670E-03, -2.254E-02         F               0         Tower X orientation angle, node 8, rad
         56   -6.689E-03,  9.990E-01,  4.325E-02         F               0         Tower Y orientation angle, node 8, rad
         57    2.285E-02, -4.308E-02,  9.988E-01         F               0         Tower Z orientation angle, node 8, rad
         58    9.997E-01,  7.675E-03, -2.267E-02         F               0         Tower X orientation angle, node 9, rad
         59   -6.689E-03,  9.990E-01,  4.325E-02         F               0         Tower Y orientation angle, node 9, rad
         60    2.298E-02, -4.308E-02,  9.988E-01         F               0         Tower Z orientation angle, node 9, rad
         61    9.997E-01,  7.678E-03, -2.274E-02         F               0         Tower X orientation angle, node 10, rad
         62   -6.689E-03,  9.990E-01,  4.325E-02         F               0         Tower Y orientation angle, node 10, rad
         63    2.305E-02, -4.308E-02,  9.988E-01         F               0         Tower Z orientation angle, node 10, rad
         64    9.997E-01,  7.679E-03, -2.277E-02         F               0         Tower X orientation angle, node 11, rad
         65   -6.689E-03,  9.990E-01,  4.325E-02         F               0         Tower Y orientation angle, node 11, rad
         66    2.308E-02, -4.308E-02,  9.988E-01         F               0         Tower Z orientation angle, node 11, rad
         67   -2.901E-03                                 F               0         Tower X translation velocity, node 1, m/s
         68   -3.573E-07                                 F               0         Tower Y translation velocity, node 1, m/s
         69   -4.595E-03                                 F               0         Tower Z translation velocity, node 1, m/s
         70   -2.905E-03                                 F               0         Tower X translation velocity, node 2, m/s
         71   -6.243E-07                                 F               0         Tower Y translation velocity, node 2, m/s
         72   -4.595E-03                                 F               0         Tower Z translation velocity, node 2, m/s
         73   -2.916E-03                                 F               0         Tower X translation velocity, node 3, m/s
         74   -9.673E-07                                 F               0         Tower Y translation velocity, node 3, m/s
         75   -4.595E-03                                 F               0         Tower Z translation velocity, node 3, m/s
         76   -2.936E-03                                 F               0         Tower X translation velocity, node 4, m/s
         77   -1.384E-06                                 F               0         Tower Y translation velocity, node 4, m/s
         78   -4.595E-03                                 F               0         Tower Z translation velocity, node 4, m/s
         79   -2.965E-03                                 F               0         Tower X translation velocity, node 5, m/s
         80   -1.876E-06                                 F               0         Tower Y translation velocity, node 5, m/s
         81   -4.594E-03                                 F               0         Tower Z translation velocity, node 5, m/s
         82   -3.002E-03                                 F               0         Tower X translation velocity, node 6, m/s
         83   -2.446E-06                                 F               0         Tower Y translation velocity, node 6, m/s
         84   -4.593E-03                                 F               0         Tower Z translation velocity, node 6, m/s
         85   -3.049E-03                                 F               0         Tower X translation velocity, node 7, m/s
         86   -3.084E-06                                 F               0         Tower Y translation velocity, node 7, m/s
         87   -4.592E-03                                 F               0         Tower Z translation velocity, node 7, m/s
         88   -3.103E-03                                 F               0         Tower X translation velocity, node 8, m/s
         89   -3.792E-06                                 F               0         Tower Y translation velocity, node 8, m/s
         90   -4.591E-03                                 F               0         Tower Z translation velocity, node 8, m/s
         91   -3.165E-03                                 F               0         Tower X translation velocity, node 9, m/s
         92   -4.559E-06                                 F               0         Tower Y translation velocity, node 9, m/s
         93   -4.590E-03                                 F               0         Tower Z translation velocity, node 9, m/s
         94   -3.233E-03                                 F               0         Tower X translation velocity, node 10, m/s
         95   -5.373E-06                                 F               0         Tower Y translation velocity, node 10, m/s
         96   -4.588E-03                                 F               0         Tower Z translation velocity, node 10, m/s
         97   -3.306E-03                                 F               0         Tower X translation velocity, node 11, m/s
         98   -6.219E-06                                 F               0         Tower Y translation velocity, node 11, m/s
         99   -4.586E-03                                 F               0         Tower Z translation velocity, node 11, m/s
        100    1.139E+01                                 F               0         Hub X translation displacement, node 1, m
        101   -7.100E+00                                 F               0         Hub Y translation displacement, node 1, m
        102   -2.446E-02                                 F               0         Hub Z translation displacement, node 1, m
        103    9.918E-01,  1.214E-02, -1.270E-01         F               0         Hub X orientation angle, node 1, rad
        104    1.200E-01, -4.273E-01,  8.961E-01         F               0         Hub Y orientation angle, node 1, rad
        105   -4.341E-02, -9.040E-01, -4.253E-01         F               0         Hub Z orientation angle, node 1, rad
        106    8.864E-01                                 F               0         Hub X rotation velocity, node 1, rad/s
        107    1.084E-02                                 F               0         Hub Y rotation velocity, node 1, rad/s
        108   -1.135E-01                                 F               0         Hub Z rotation velocity, node 1, rad/s
        109    9.878E-01,  2.481E-02, -1.536E-01         F               0         Blade root 1 X orientation angle, node 1, rad
        110    1.494E-01, -4.268E-01,  8.919E-01         F               0         Blade root 1 Y orientation angle, node 1, rad
        111   -4.341E-02, -9.040E-01, -4.253E-01         F               0         Blade root 1 Z orientation angle, node 1, rad
        112    9.943E-01,  2.902E-02, -1.028E-01         F               0         Blade root 2 X orientation angle, node 1, rad
        113   -6.814E-02, -5.686E-01, -8.198E-01         F               0         Blade root 2 Y orientation angle, node 1, rad
        114   -8.223E-02,  8.221E-01, -5.634E-01         F               0         Blade root 2 Z orientation angle, node 1, rad
        115    9.921E-01, -1.743E-02, -1.246E-01         F               0         Blade root 3 X orientation angle, node 1, rad
        116    7.021E-03,  9.965E-01, -8.347E-02         F               0         Blade root 3 Y orientation angle, node 1, rad
        117    1.256E-01,  8.193E-02,  9.887E-01         F               0         Blade root 3 Z orientation angle, node 1, rad
        118    1.057E+01                                 F               0         Blade 1 X translation displacement, node 1, m
        119   -1.211E+01                                 F               0         Blade 1 Y translation displacement, node 1, m
        120   -7.890E+00                                 F               0         Blade 1 Z translation displacement, node 1, m
        121    1.037E+01                                 F               0         Blade 1 X translation displacement, node 2, m
        122   -1.331E+01                                 F               0         Blade 1 Y translation displacement, node 2, m
        123   -9.786E+00                                 F               0         Blade 1 Z translation displacement, node 2, m
        124    7.685E+00                                 F               0         Blade 1 X translation displacement, node 3, m
        125   -2.972E+01                                 F               0         Blade 1 Y translation displacement, node 3, m
        126   -3.556E+01                                 F               0         Blade 1 Z translation displacement, node 3, m
        127    7.113E+00                                 F               0         Blade 1 X translation displacement, node 4, m
        128   -3.322E+01                                 F               0         Blade 1 Y translation displacement, node 4, m
        129   -4.105E+01                                 F               0         Blade 1 Z translation displacement, node 4, m
        130    6.541E+00                                 F               0         Blade 1 X translation displacement, node 5, m
        131   -3.672E+01                                 F               0         Blade 1 Y translation displacement, node 5, m
        132   -4.654E+01                                 F               0         Blade 1 Z translation displacement, node 5, m
        133    5.968E+00                                 F               0         Blade 1 X translation displacement, node 6, m
        134   -4.021E+01                                 F               0         Blade 1 Y translation displacement, node 6, m
        135   -5.203E+01                                 F               0         Blade 1 Z translation displacement, node 6, m
        136    5.396E+00                                 F               0         Blade 1 X translation displacement, node 7, m
        137   -4.371E+01                                 F               0         Blade 1 Y translation displacement, node 7, m
        138   -5.752E+01                                 F               0         Blade 1 Z translation displacement, node 7, m
        139    4.824E+00                                 F               0         Blade 1 X translation displacement, node 8, m
        140   -4.721E+01                                 F               0         Blade 1 Y translation displacement, node 8, m
        141   -6.302E+01                                 F               0         Blade 1 Z translation displacement, node 8, m
        142    4.252E+00                                 F               0         Blade 1 X translation displacement, node 9, m
        143   -5.070E+01                                 F               0         Blade 1 Y translation displacement, node 9, m
        144   -6.851E+01                                 F               0         Blade 1 Z translation displacement, node 9, m
        145    3.680E+00                                 F               0         Blade 1 X translation displacement, node 10, m
        146   -5.420E+01                                 F               0         Blade 1 Y translation displacement, node 10, m
        147   -7.400E+01                                 F               0         Blade 1 Z translation displacement, node 10, m
        148    3.107E+00                                 F               0         Blade 1 X translation displacement, node 11, m
        149   -5.770E+01                                 F               0         Blade 1 Y translation displacement, node 11, m
        150   -7.949E+01                                 F               0         Blade 1 Z translation displacement, node 11, m
        151    2.535E+00                                 F               0         Blade 1 X translation displacement, node 12, m
        152   -6.119E+01                                 F               0         Blade 1 Y translation displacement, node 12, m
        153   -8.498E+01                                 F               0         Blade 1 Z translation displacement, node 12, m
        154    1.963E+00                                 F               0         Blade 1 X translation displacement, node 13, m
        155   -6.469E+01                                 F               0         Blade 1 Y translation displacement, node 13, m
        156   -9.047E+01                                 F               0         Blade 1 Z translation displacement, node 13, m
        157    1.391E+00                                 F               0         Blade 1 X translation displacement, node 14, m
        158   -6.819E+01                                 F               0         Blade 1 Y translation displacement, node 14, m
        159   -9.596E+01                                 F               0         Blade 1 Z translation displacement, node 14, m
        160    8.186E-01                                 F               0         Blade 1 X translation displacement, node 15, m
        161   -7.168E+01                                 F               0         Blade 1 Y translation displacement, node 15, m
        162   -1.015E+02                                 F               0         Blade 1 Z translation displacement, node 15, m
        163    2.465E-01                                 F               0         Blade 1 X translation displacement, node 16, m
        164   -7.518E+01                                 F               0         Blade 1 Y translation displacement, node 16, m
        165   -1.069E+02                                 F               0         Blade 1 Z translation displacement, node 16, m
        166   -3.257E-01                                 F               0         Blade 1 X translation displacement, node 17, m
        167   -7.868E+01                                 F               0         Blade 1 Y translation displacement, node 17, m
        168   -1.124E+02                                 F               0         Blade 1 Z translation displacement, node 17, m
        169   -8.978E-01                                 F               0         Blade 1 X translation displacement, node 18, m
        170   -8.217E+01                                 F               0         Blade 1 Y translation displacement, node 18, m
        171   -1.179E+02                                 F               0         Blade 1 Z translation displacement, node 18, m
        172   -1.470E+00                                 F               0         Blade 1 X translation displacement, node 19, m
        173   -8.567E+01                                 F               0         Blade 1 Y translation displacement, node 19, m
        174   -1.234E+02                                 F               0         Blade 1 Z translation displacement, node 19, m
        175   -2.042E+00                                 F               0         Blade 1 X translation displacement, node 20, m
        176   -8.916E+01                                 F               0         Blade 1 Y translation displacement, node 20, m
        177   -1.289E+02                                 F               0         Blade 1 Z translation displacement, node 20, m
        178   -2.614E+00                                 F               0         Blade 1 X translation displacement, node 21, m
        179   -9.266E+01                                 F               0         Blade 1 Y translation displacement, node 21, m
        180   -1.344E+02                                 F               0         Blade 1 Z translation displacement, node 21, m
        181   -3.187E+00                                 F               0         Blade 1 X translation displacement, node 22, m
        182   -9.616E+01                                 F               0         Blade 1 Y translation displacement, node 22, m
        183   -1.399E+02                                 F               0         Blade 1 Z translation displacement, node 22, m
        184   -3.759E+00                                 F               0         Blade 1 X translation displacement, node 23, m
        185   -9.965E+01                                 F               0         Blade 1 Y translation displacement, node 23, m
        186   -1.454E+02                                 F               0         Blade 1 Z translation displacement, node 23, m
        187   -4.331E+00                                 F               0         Blade 1 X translation displacement, node 24, m
        188   -1.032E+02                                 F               0         Blade 1 Y translation displacement, node 24, m
        189   -1.509E+02                                 F               0         Blade 1 Z translation displacement, node 24, m
        190   -4.903E+00                                 F               0         Blade 1 X translation displacement, node 25, m
        191   -1.066E+02                                 F               0         Blade 1 Y translation displacement, node 25, m
        192   -1.564E+02                                 F               0         Blade 1 Z translation displacement, node 25, m
        193   -5.475E+00                                 F               0         Blade 1 X translation displacement, node 26, m
        194   -1.101E+02                                 F               0         Blade 1 Y translation displacement, node 26, m
        195   -1.619E+02                                 F               0         Blade 1 Z translation displacement, node 26, m
        196   -6.048E+00                                 F               0         Blade 1 X translation displacement, node 27, m
        197   -1.136E+02                                 F               0         Blade 1 Y translation displacement, node 27, m
        198   -1.674E+02                                 F               0         Blade 1 Z translation displacement, node 27, m
        199   -6.533E+00                                 F               0         Blade 1 X translation displacement, node 28, m
        200   -1.166E+02                                 F               0         Blade 1 Y translation displacement, node 28, m
        201   -1.720E+02                                 F               0         Blade 1 Z translation displacement, node 28, m
        202    8.110E-01,  2.167E-01, -5.434E-01         F               0         Blade 1 X orientation angle, node 1, rad
        203    5.834E-01, -3.685E-01,  7.238E-01         F               0         Blade 1 Y orientation angle, node 1, rad
        204   -4.341E-02, -9.040E-01, -4.253E-01         F               0         Blade 1 Z orientation angle, node 1, rad
        205    8.110E-01,  2.167E-01, -5.434E-01         F               0         Blade 1 X orientation angle, node 2, rad
        206    5.834E-01, -3.685E-01,  7.238E-01         F               0         Blade 1 Y orientation angle, node 2, rad
        207   -4.341E-02, -9.040E-01, -4.253E-01         F               0         Blade 1 Z orientation angle, node 2, rad
        208    9.262E-01,  1.232E-01, -3.564E-01         F               0         Blade 1 X orientation angle, node 3, rad
        209    3.746E-01, -4.094E-01,  8.319E-01         F               0         Blade 1 Y orientation angle, node 3, rad
        210   -4.341E-02, -9.040E-01, -4.253E-01         F               0         Blade 1 Z orientation angle, node 3, rad
        211    9.412E-01,  1.058E-01, -3.209E-01         F               0         Blade 1 X orientation angle, node 4, rad
        212    3.351E-01, -4.142E-01,  8.462E-01         F               0         Blade 1 Y orientation angle, node 4, rad
        213   -4.341E-02, -9.040E-01, -4.253E-01         F               0         Blade 1 Z orientation angle, node 4, rad
        214    9.518E-01,  9.200E-02, -2.927E-01         F               0         Blade 1 X orientation angle, node 5, rad
        215    3.037E-01, -4.175E-01,  8.564E-01         F               0         Blade 1 Y orientation angle, node 5, rad
        216   -4.341E-02, -9.040E-01, -4.253E-01         F               0         Blade 1 Z orientation angle, node 5, rad
        217    9.595E-01,  8.089E-02, -2.699E-01         F               0         Blade 1 X orientation angle, node 6, rad
        218    2.784E-01, -4.198E-01,  8.639E-01         F               0         Blade 1 Y orientation angle, node 6, rad
        219   -4.341E-02, -9.040E-01, -4.253E-01         F               0         Blade 1 Z orientation angle, node 6, rad
        220    9.653E-01,  7.172E-02, -2.510E-01         F               0         Blade 1 X orientation angle, node 7, rad
        221    2.574E-01, -4.214E-01,  8.696E-01         F               0         Blade 1 Y orientation angle, node 7, rad
        222   -4.341E-02, -9.040E-01, -4.253E-01         F               0         Blade 1 Z orientation angle, node 7, rad
        223    9.698E-01,  6.405E-02, -2.352E-01         F               0         Blade 1 X orientation angle, node 8, rad
        224    2.398E-01, -4.227E-01,  8.740E-01         F               0         Blade 1 Y orientation angle, node 8, rad
        225   -4.341E-02, -9.040E-01, -4.253E-01         F               0         Blade 1 Z orientation angle, node 8, rad
        226    9.734E-01,  5.756E-02, -2.217E-01         F               0         Blade 1 X orientation angle, node 9, rad
        227    2.249E-01, -4.236E-01,  8.775E-01         F               0         Blade 1 Y orientation angle, node 9, rad