
Linearized model: Predictions were generated on 13-Feb-2024 at 11:29:37 using OpenFAST, compiled as a 64-bit application using single precision at commit v3.5.1
 linked with  NWTC Subroutine Library; ElastoDyn; InflowWind; AeroDyn; ServoDyn; HydroDyn; MAP++ (<1.20.10>, <Oct-20-2023>)

Description from the FAST input file: CCT-9 Campign 4 model. Input files to be run with OpenFAST 3.5.0. GitHub branch from Lu Wang (https://github.com/luwang00/openfast/tree/dev) compiled on March 7, 2023.

Simulation information:
   Simulation time:                  1213.4750 s
   Rotor Speed:                         0.7917 rad/s
   Azimuth:                             2.0977 rad
   Wind Speed:                         16.0000 m/s
   Number of continuous states:         0
   Number of discrete states:           0
   Number of constraint states:         0
   Number of inputs:                 1746
   Number of outputs:                   4
   Jacobians included in this file?    No

Order of inputs:
     Column   Operating Point                                                   Rotating Frame? Derivative Order Description
   ---------- ---------------                                                   --------------- ---------------- -----------
          1     1.07027893066E+001                                                     F               0         Tower X translation displacement, node 1, m
          2    -1.55799007416E+000                                                     F               0         Tower Y translation displacement, node 1, m
          3    -2.70327210426E-001                                                     F               0         Tower Z translation displacement, node 1, m
          4     1.20887699127E+001                                                     F               0         Tower X translation displacement, node 2, m
          5    -2.19093108177E+000                                                     F               0         Tower Y translation displacement, node 2, m
          6    -3.64640593529E-001                                                     F               0         Tower Z translation displacement, node 2, m
          7     1.34747495651E+001                                                     F               0         Tower X translation displacement, node 3, m
          8    -2.82387232780E+000                                                     F               0         Tower Y translation displacement, node 3, m
          9    -4.58951890469E-001                                                     F               0         Tower Z translation displacement, node 3, m
         10     1.48607301712E+001                                                     F               0         Tower X translation displacement, node 4, m
         11    -3.45681357384E+000                                                     F               0         Tower Y translation displacement, node 4, m
         12    -5.53263366222E-001                                                     F               0         Tower Z translation displacement, node 4, m
         13     1.62467117310E+001                                                     F               0         Tower X translation displacement, node 5, m
         14    -4.08975505829E+000                                                     F               0         Tower Y translation displacement, node 5, m
         15    -6.47572040558E-001                                                     F               0         Tower Z translation displacement, node 5, m
         16     1.76326904297E+001                                                     F               0         Tower X translation displacement, node 6, m
         17    -4.72269582748E+000                                                     F               0         Tower Y translation displacement, node 6, m
         18    -7.41891264915E-001                                                     F               0         Tower Z translation displacement, node 6, m
         19     1.90186710358E+001                                                     F               0         Tower X translation displacement, node 7, m
         20    -5.35563755035E+000                                                     F               0         Tower Y translation displacement, node 7, m
         21    -8.36196482182E-001                                                     F               0         Tower Z translation displacement, node 7, m
         22     2.04046516418E+001                                                     F               0         Tower X translation displacement, node 8, m
         23    -5.98857831955E+000                                                     F               0         Tower Y translation displacement, node 8, m
         24    -9.30513799191E-001                                                     F               0         Tower Z translation displacement, node 8, m
         25     2.17906322479E+001                                                     F               0         Tower X translation displacement, node 9, m
         26    -6.62152004242E+000                                                     F               0         Tower Y translation displacement, node 9, m
         27    -1.02482211590E+000                                                     F               0         Tower Z translation displacement, node 9, m
         28     2.31766128540E+001                                                     F               0         Tower X translation displacement, node 10, m
         29    -7.25446081161E+000                                                     F               0         Tower Y translation displacement, node 10, m
         30    -1.11913645267E+000                                                     F               0         Tower Z translation displacement, node 10, m
         31     2.45625934601E+001                                                     F               0         Tower X translation displacement, node 11, m
         32    -7.88740205765E+000                                                     F               0         Tower Y translation displacement, node 11, m
         33    -1.21344769001E+000                                                     F               0         Tower Z translation displacement, node 11, m
         34     9.93685126305E-001,   3.40569321997E-003,  -1.12152956426E-001         F               0         Tower X orientation angle, node 1, rad
         35     2.36585084349E-003,   9.98681068420E-001,   5.12881018221E-002         F               0         Tower Y orientation angle, node 1, rad
         36     1.12179711461E-001,  -5.12295588851E-002,   9.92366492748E-001         F               0         Tower Z orientation angle, node 1, rad
         37     9.93685126305E-001,   3.40569321997E-003,  -1.12152956426E-001         F               0         Tower X orientation angle, node 2, rad
         38     2.36585084349E-003,   9.98681068420E-001,   5.12881018221E-002         F               0         Tower Y orientation angle, node 2, rad
         39     1.12179711461E-001,  -5.12295588851E-002,   9.92366492748E-001         F               0         Tower Z orientation angle, node 2, rad
         40     9.93685126305E-001,   3.40569321997E-003,  -1.12152956426E-001         F               0         Tower X orientation angle, node 3, rad
         41     2.36585084349E-003,   9.98681068420E-001,   5.12881018221E-002         F               0         Tower Y orientation angle, node 3, rad
         42     1.12179711461E-001,  -5.12295588851E-002,   9.92366492748E-001         F               0         Tower Z orientation angle, node 3, rad
         43     9.93685126305E-001,   3.40569321997E-003,  -1.12152956426E-001         F               0         Tower X orientation angle, node 4, rad
         44     2.36585084349E-003,   9.98681068420E-001,   5.12881018221E-002         F               0         Tower Y orientation angle, node 4, rad
         45     1.12179711461E-001,  -5.12295588851E-002,   9.92366492748E-001         F               0         Tower Z orientation angle, node 4, rad
         46     9.93685126305E-001,   3.40569321997E-003,  -1.12152956426E-001         F               0         Tower X orientation angle, node 5, rad
         47     2.36585084349E-003,   9.98681068420E-001,   5.12881018221E-002         F               0         Tower Y orientation angle, node 5, rad
         48     1.12179711461E-001,  -5.12295588851E-002,   9.92366492748E-001         F               0         Tower Z orientation angle, node 5, rad
         49     9.93685126305E-001,   3.40569321997E-003,  -1.12152956426E-001         F               0         Tower X orientation angle, node 6, rad
         50     2.36585084349E-003,   9.98681068420E-001,   5.12881018221E-002         F               0         Tower Y orientation angle, node 6, rad
         51     1.12179711461E-001,  -5.12295588851E-002,   9.92366492748E-001         F               0         Tower Z orientation angle, node 6, rad
         52     9.93685126305E-001,   3.40569321997E-003,  -1.12152956426E-001         F               0         Tower X orientation angle, node 7, rad
         53     2.36585084349E-003,   9.98681068420E-001,   5.12881018221E-002         F               0         Tower Y orientation angle, node 7, rad
         54     1.12179711461E-001,  -5.12295588851E-002,   9.92366492748E-001         F               0         Tower Z orientation angle, node 7, rad
         55     9.93685126305E-001,   3.40569321997E-003,  -1.12152956426E-001         F               0         Tower X orientation angle, node 8, rad
         56     2.36585084349E-003,   9.98681068420E-001,   5.12880980968E-002         F               0         Tower Y orientation angle, node 8, rad
         57     1.12179711461E-001,  -5.12295588851E-002,   9.92366492748E-001         F               0         Tower Z orientation angle, node 8, rad
         58     9.93685126305E-001,   3.40569345281E-003,  -1.12152963877E-001         F               0         Tower X orientation angle, node 9, rad
         59     2.36585107632E-003,   9.98681068420E-001,   5.12881018221E-002         F               0         Tower Y orientation angle, node 9, rad
         60     1.12179711461E-001,  -5.12295626104E-002,   9.92366492748E-001         F               0         Tower Z orientation angle, node 9, rad
         61     9.93685126305E-001,   3.40569321997E-003,  -1.12152956426E-001         F               0         Tower X orientation angle, node 10, rad
         62     2.36585084349E-003,   9.98681068420E-001,   5.12881018221E-002         F               0         Tower Y orientation angle, node 10, rad
         63     1.12179711461E-001,  -5.12295588851E-002,   9.92366492748E-001         F               0         Tower Z orientation angle, node 10, rad
         64     9.93685126305E-001,   3.40569321997E-003,  -1.12152956426E-001         F               0         Tower X orientation angle, node 11, rad
         65     2.36585084349E-003,   9.98681068420E-001,   5.12881018221E-002         F               0         Tower Y orientation angle, node 11, rad
         66     1.12179711461E-001,  -5.12295588851E-002,   9.92366492748E-001         F               0         Tower Z orientation angle, node 11, rad
         67     4.24110039603E-004                                                     F               0         Tower X translation velocity, node 1, m/s
         68     5.40621520486E-004                                                     F               0         Tower Y translation velocity, node 1, m/s
         69    -2.05564661883E-003                                                     F               0         Tower Z translation velocity, node 1, m/s
         70     5.82083943300E-004                                                     F               0         Tower X translation velocity, node 2, m/s
         71     6.86560641043E-004                                                     F               0         Tower Y translation velocity, node 2, m/s
         72    -2.06597056240E-003                                                     F               0         Tower Z translation velocity, node 2, m/s
         73     7.40057905205E-004                                                     F               0         Tower X translation velocity, node 3, m/s
         74     8.32499878015E-004                                                     F               0         Tower Y translation velocity, node 3, m/s
         75    -2.07629450597E-003                                                     F               0         Tower Z translation velocity, node 3, m/s
         76     8.98031808902E-004                                                     F               0         Tower X translation velocity, node 4, m/s
         77     9.78438998573E-004                                                     F               0         Tower Y translation velocity, node 4, m/s
         78    -2.08661821671E-003                                                     F               0         Tower Z translation velocity, node 4, m/s
         79     1.05600582901E-003                                                     F               0         Tower X translation velocity, node 5, m/s
         80     1.12437829375E-003                                                     F               0         Tower Y translation velocity, node 5, m/s
         81    -2.09694216028E-003                                                     F               0         Tower Z translation velocity, node 5, m/s
         82     1.21397967450E-003                                                     F               0         Tower X translation velocity, node 6, m/s
         83     1.27031723969E-003                                                     F               0         Tower Y translation velocity, node 6, m/s
         84    -2.10726610385E-003                                                     F               0         Tower Z translation velocity, node 6, m/s
         85     1.37195363641E-003                                                     F               0         Tower X translation velocity, node 7, m/s
         86     1.41625653487E-003                                                     F               0         Tower Y translation velocity, node 7, m/s
         87    -2.11758981459E-003                                                     F               0         Tower Z translation velocity, node 7, m/s
         88     1.52992748190E-003                                                     F               0         Tower X translation velocity, node 8, m/s
         89     1.56219559722E-003                                                     F               0         Tower Y translation velocity, node 8, m/s
         90    -2.12791375816E-003                                                     F               0         Tower Z translation velocity, node 8, m/s
         91     1.68790156022E-003                                                     F               0         Tower X translation velocity, node 9, m/s
         92     1.70813489240E-003                                                     F               0         Tower Y translation velocity, node 9, m/s
         93    -2.13823770173E-003                                                     F               0         Tower Z translation velocity, node 9, m/s
         94     1.84587528929E-003                                                     F               0         Tower X translation velocity, node 10, m/s
         95     1.85407407116E-003                                                     F               0         Tower Y translation velocity, node 10, m/s
         96    -2.14856164530E-003                                                     F               0         Tower Z translation velocity, node 10, m/s
         97     2.00384948403E-003                                                     F               0         Tower X translation velocity, node 11, m/s
         98     2.00001313351E-003                                                     F               0         Tower Y translation velocity, node 11, m/s
         99    -2.15888535604E-003                                                     F               0         Tower Z translation velocity, node 11, m/s
        100     2.55114269257E+001                                                     F               0         Hub X translation displacement, node 1, m
        101    -8.32634639740E+000                                                     F               0         Hub Y translation displacement, node 1, m
        102    -6.20580017567E-002                                                     F               0         Hub Z translation displacement, node 1, m
        103     9.76515650749E-001,   8.74198414385E-003,  -2.15269118547E-001         F               0         Hub X orientation angle, node 1, rad
        104     1.85029447079E-001,  -5.45887529850E-001,   8.17172527313E-001         F               0         Hub Y orientation angle, node 1, rad
        105    -1.10369019210E-001,  -8.37812840939E-001,  -5.34685254097E-001         F               0         Hub Z orientation angle, node 1, rad
        106     7.73081839085E-001                                                     F               0         Hub X rotation velocity, node 1, rad/s
        107     6.93415338174E-003                                                     F               0         Hub Y rotation velocity, node 1, rad/s
        108    -1.70432597399E-001                                                     F               0         Hub Z rotation velocity, node 1, rad/s
        109     9.40770804882E-001,   8.54565203190E-002,  -3.28096807003E-001         F               0         Blade root 1 X orientation angle, node 1, rad
        110     3.20576071739E-001,  -5.39227962494E-001,   7.78758108616E-001         F               0         Blade root 1 Y orientation angle, node 1, rad
        111    -1.10369019210E-001,  -8.37812840939E-001,  -5.34685254097E-001         F               0         Blade root 1 Z orientation angle, node 1, rad
        112     9.93266344070E-001,   7.23351016641E-002,  -9.04963985085E-002         F               0         Blade root 2 X orientation angle, node 1, rad
        113    -4.88391928375E-002,  -4.46891546249E-001,  -8.93253982067E-001         F               0         Blade root 2 Y orientation angle, node 1, rad
        114    -1.05055689812E-001,   8.91658902168E-001,  -4.40349549055E-001         F               0         Blade root 2 Z orientation angle, node 1, rad
        115     9.66371178627E-001,  -1.31826519966E-001,  -2.20790654421E-001         F               0         Blade root 3 X orientation angle, node 1, rad
        116     1.40424147248E-001,   9.89809274673E-001,   2.36365720630E-002         F               0         Blade root 3 Y orientation angle, node 1, rad
        117     2.15424716473E-001,  -5.38460426033E-002,   9.75034773350E-001         F               0         Blade root 3 Z orientation angle, node 1, rad
        118     2.43208942413E+001                                                     F               0         Blade 1 X translation displacement, node 1, m
        119    -1.29678297043E+001                                                     F               0         Blade 1 Y translation displacement, node 1, m
        120    -8.53387260437E+000                                                     F               0         Blade 1 Z translation displacement, node 1, m
        121     2.40340270996E+001                                                     F               0         Blade 1 X translation displacement, node 2, m
        122    -1.40862312317E+001                                                     F               0         Blade 1 Y translation displacement, node 2, m
        123    -1.05752182007E+001                                                     F               0         Blade 1 Z translation displacement, node 2, m
        124     2.01331214905E+001                                                     F               0         Blade 1 X translation displacement, node 3, m
        125    -2.92945518494E+001                                                     F               0         Blade 1 Y translation displacement, node 3, m
        126    -3.83340072632E+001                                                     F               0         Blade 1 Z translation displacement, node 3, m
        127     1.93020095825E+001                                                     F               0         Blade 1 X translation displacement, node 4, m
        128    -3.25347747803E+001                                                     F               0         Blade 1 Y translation displacement, node 4, m
        129    -4.42481880188E+001                                                     F               0         Blade 1 Z translation displacement, node 4, m
        130     1.84707412720E+001                                                     F               0         Blade 1 X translation displacement, node 5, m
        131    -3.57756118774E+001                                                     F               0         Blade 1 Y translation displacement, node 5, m
        132    -5.01634788513E+001                                                     F               0         Blade 1 Z translation displacement, node 5, m
        133     1.76396255493E+001                                                     F               0         Blade 1 X translation displacement, node 6, m
        134    -3.90158462524E+001                                                     F               0         Blade 1 Y translation displacement, node 6, m
        135    -5.60776824951E+001                                                     F               0         Blade 1 Z translation displacement, node 6, m
        136     1.68085079193E+001                                                     F               0         Blade 1 X translation displacement, node 7, m
        137    -4.22560920715E+001                                                     F               0         Blade 1 Y translation displacement, node 7, m
        138    -6.19918937683E+001                                                     F               0         Blade 1 Z translation displacement, node 7, m
        139     1.59772424698E+001                                                     F               0         Blade 1 X translation displacement, node 8, m
        140    -4.54969215393E+001                                                     F               0         Blade 1 Y translation displacement, node 8, m
        141    -6.79071807861E+001                                                     F               0         Blade 1 Z translation displacement, node 8, m
        142     1.51461248398E+001                                                     F               0         Blade 1 X translation displacement, node 9, m
        143    -4.87371673584E+001                                                     F               0         Blade 1 Y translation displacement, node 9, m
        144    -7.38213882446E+001                                                     F               0         Blade 1 Z translation displacement, node 9, m
        145     1.43150100708E+001                                                     F               0         Blade 1 X translation displacement, node 10, m
        146    -5.19774017334E+001                                                     F               0         Blade 1 Y translation displacement, node 10, m
        147    -7.97355957031E+001                                                     F               0         Blade 1 Z translation displacement, node 10, m
        148     1.34838924408E+001                                                     F               0         Blade 1 X translation displacement, node 11, m
        149    -5.52176513672E+001                                                     F               0         Blade 1 Y translation displacement, node 11, m
        150    -8.56498107910E+001                                                     F               0         Blade 1 Z translation displacement, node 11, m
        151     1.26526298523E+001                                                     F               0         Blade 1 X translation displacement, node 12, m
        152    -5.84584655762E+001                                                     F               0         Blade 1 Y translation displacement, node 12, m
        153    -9.15650711060E+001                                                     F               0         Blade 1 Z translation displacement, node 12, m
        154     1.18215122223E+001                                                     F               0         Blade 1 X translation displacement, node 13, m
        155    -6.16987113953E+001                                                     F               0         Blade 1 Y translation displacement, node 13, m
        156    -9.74792861938E+001                                                     F               0         Blade 1 Z translation displacement, node 13, m
        157     1.09903974533E+001                                                     F               0         Blade 1 X translation displacement, node 14, m
        158    -6.49389495850E+001                                                     F               0         Blade 1 Y translation displacement, node 14, m
        159    -1.03393486023E+002                                                     F               0         Blade 1 Z translation displacement, node 14, m
        160     1.01591291428E+001                                                     F               0         Blade 1 X translation displacement, node 15, m
        161    -6.81797790527E+001                                                     F               0         Blade 1 Y translation displacement, node 15, m
        162    -1.09308776855E+002                                                     F               0         Blade 1 Z translation displacement, node 15, m
        163     9.32801437378E+000                                                     F               0         Blade 1 X translation displacement, node 16, m
        164    -7.14200210571E+001                                                     F               0         Blade 1 Y translation displacement, node 16, m
        165    -1.15222984314E+002                                                     F               0         Blade 1 Z translation displacement, node 16, m
        166     8.49689674377E+000                                                     F               0         Blade 1 X translation displacement, node 17, m
        167    -7.46602706909E+001                                                     F               0         Blade 1 Y translation displacement, node 17, m
        168    -1.21137199402E+002                                                     F               0         Blade 1 Z translation displacement, node 17, m
        169     7.66578102112E+000                                                     F               0         Blade 1 X translation displacement, node 18, m
        170    -7.79005050659E+001                                                     F               0         Blade 1 Y translation displacement, node 18, m
        171    -1.27051406860E+002                                                     F               0         Blade 1 Z translation displacement, node 18, m
        172     6.83451747894E+000                                                     F               0         Blade 1 X translation displacement, node 19, m
        173    -8.11413192749E+001                                                     F               0         Blade 1 Y translation displacement, node 19, m
        174    -1.32966659546E+002                                                     F               0         Blade 1 Z translation displacement, node 19, m
        175     6.00339937210E+000                                                     F               0         Blade 1 X translation displacement, node 20, m
        176    -8.43815689087E+001                                                     F               0         Blade 1 Y translation displacement, node 20, m
        177    -1.38880874634E+002                                                     F               0         Blade 1 Z translation displacement, node 20, m
        178     5.17228460312E+000                                                     F               0         Blade 1 X translation displacement, node 21, m
        179    -8.76218109131E+001                                                     F               0         Blade 1 Y translation displacement, node 21, m
        180    -1.44795089722E+002                                                     F               0         Blade 1 Z translation displacement, node 21, m
        181     4.34101772308E+000                                                     F               0         Blade 1 X translation displacement, node 22, m
        182    -9.08626403809E+001                                                     F               0         Blade 1 Y translation displacement, node 22, m
        183    -1.50710372925E+002                                                     F               0         Blade 1 Z translation displacement, node 22, m