
Linearized model: Predictions were generated on 31-Jan-2024 at 12:35:17 using OpenFAST, compiled as a 64-bit application using single precision at commit v3.5.1
 linked with  NWTC Subroutine Library; ElastoDyn; InflowWind; AeroDyn; ServoDyn; HydroDyn; MAP++ (<1.20.10>, <Oct-20-2023>)

Description from the FAST input file: CCT-9 Campign 4 model. Input files to be run with OpenFAST 3.5.0. GitHub branch from Lu Wang (https://github.com/luwang00/openfast/tree/dev) compiled on March 7, 2023.

Simulation information:
   Simulation time:                   505.2000 s
   Rotor Speed:                         0.8938 rad/s
   Azimuth:                             5.3938 rad
   Wind Speed:                         10.0000 m/s
   Number of continuous states:        12
   Number of discrete states:           0
   Number of constraint states:         0
   Number of inputs:                 3988
   Number of outputs:                  36
   Jacobians included in this file?    No

Order of continuous states:
   Row/Column Operating Point                     Rotating Frame? Derivative Order Description
   ---------- ---------------                     --------------- ---------------- -----------
          1    8.168E+00                                 F               2         ED Platform horizontal surge translation DOF (internal DOF index = DOF_Sg), m
          2   -7.356E-02                                 F               2         ED Platform vertical heave translation DOF (internal DOF index = DOF_Hv), m
          3    7.103E-03                                 F               2         ED Platform yaw rotation DOF (internal DOF index = DOF_Y), rad
          4    3.841E-01                                 F               2         ED 1st tower fore-aft bending mode DOF (internal DOF index = DOF_TFA1), m
          5    1.290E-03                                 F               2         ED 2nd tower fore-aft bending mode DOF (internal DOF index = DOF_TFA2), m
          6    3.823E+00                                 F               2         ED Variable speed generator DOF (internal DOF index = DOF_GeAz), rad
          7   -1.941E-03                                 F               2         ED First time derivative of Platform horizontal surge translation DOF (internal DOF index = DOF_Sg), m/s
          8   -8.288E-03                                 F               2         ED First time derivative of Platform vertical heave translation DOF (internal DOF index = DOF_Hv), m/s
          9    1.709E-06                                 F               2         ED First time derivative of Platform yaw rotation DOF (internal DOF index = DOF_Y), rad/s
         10    6.114E-04                                 F               2         ED First time derivative of 1st tower fore-aft bending mode DOF (internal DOF index = DOF_TFA1), m/s
         11   -3.993E-06                                 F               2         ED First time derivative of 2nd tower fore-aft bending mode DOF (internal DOF index = DOF_TFA2), m/s
         12    8.938E-01                                 F               2         ED First time derivative of Variable speed generator DOF (internal DOF index = DOF_GeAz), rad/s

Order of continuous state derivatives:
   Row/Column Operating Point                     Rotating Frame? Derivative Order Description
   ---------- ---------------                     --------------- ---------------- -----------
          1   -1.941E-03                                 F               2         First time derivative of ED Platform horizontal surge translation DOF (internal DOF index = DOF_Sg), m/s
          2   -8.288E-03                                 F               2         First time derivative of ED Platform vertical heave translation DOF (internal DOF index = DOF_Hv), m/s
          3    1.709E-06                                 F               2         First time derivative of ED Platform yaw rotation DOF (internal DOF index = DOF_Y), rad/s
          4    6.114E-04                                 F               2         First time derivative of ED 1st tower fore-aft bending mode DOF (internal DOF index = DOF_TFA1), m/s
          5   -3.993E-06                                 F               2         First time derivative of ED 2nd tower fore-aft bending mode DOF (internal DOF index = DOF_TFA2), m/s
          6    8.938E-01                                 F               2         First time derivative of ED Variable speed generator DOF (internal DOF index = DOF_GeAz), rad/s
          7   -4.218E-04                                 F               2         First time derivative of ED First time derivative of Platform horizontal surge translation DOF (internal DOF index = DOF_Sg), m/s/s
          8   -2.832E-04                                 F               2         First time derivative of ED First time derivative of Platform vertical heave translation DOF (internal DOF index = DOF_Hv), m/s/s
          9   -3.998E-06                                 F               2         First time derivative of ED First time derivative of Platform yaw rotation DOF (internal DOF index = DOF_Y), rad/s/s
         10    5.412E-04                                 F               2         First time derivative of ED First time derivative of 1st tower fore-aft bending mode DOF (internal DOF index = DOF_TFA1), m/s/s
         11   -1.468E-06                                 F               2         First time derivative of ED First time derivative of 2nd tower fore-aft bending mode DOF (internal DOF index = DOF_TFA2), m/s/s
         12   -1.582E-04                                 F               2         First time derivative of ED First time derivative of Variable speed generator DOF (internal DOF index = DOF_GeAz), rad/s/s

Order of inputs:
     Column   Operating Point                     Rotating Frame? Derivative Order Description
   ---------- ---------------                     --------------- ---------------- -----------
          1   -1.080E+01                                 F               0         IfW X-component position of node 1 (hub), m
          2    0.000E+00                                 F               0         IfW Y-component position of node 1 (hub), m
          3    1.497E+02                                 F               0         IfW Z-component position of node 1 (hub), m
          4    1.009E+00                                 F               0         IfW X-component position of node 2 (blade 1, node 1), m
          5   -2.948E+00                                 F               0         IfW Y-component position of node 2 (blade 1, node 1), m
          6    1.534E+02                                 F               0         IfW Z-component position of node 2 (blade 1, node 1), m
          7    1.109E+00                                 F               0         IfW X-component position of node 3 (blade 1, node 2), m
          8   -1.947E+00                                 F               0         IfW Y-component position of node 3 (blade 1, node 2), m
          9    1.543E+02                                 F               0         IfW Z-component position of node 3 (blade 1, node 2), m
         10    2.472E+00                                 F               0         IfW X-component position of node 4 (blade 1, node 3), m
         11    1.166E+01                                 F               0         IfW Y-component position of node 4 (blade 1, node 3), m
         12    1.662E+02                                 F               0         IfW Z-component position of node 4 (blade 1, node 3), m
         13    2.762E+00                                 F               0         IfW X-component position of node 5 (blade 1, node 4), m
         14    1.456E+01                                 F               0         IfW Y-component position of node 5 (blade 1, node 4), m
         15    1.687E+02                                 F               0         IfW Z-component position of node 5 (blade 1, node 4), m
         16    3.053E+00                                 F               0         IfW X-component position of node 6 (blade 1, node 5), m
         17    1.745E+01                                 F               0         IfW Y-component position of node 6 (blade 1, node 5), m
         18    1.713E+02                                 F               0         IfW Z-component position of node 6 (blade 1, node 5), m
         19    3.343E+00                                 F               0         IfW X-component position of node 7 (blade 1, node 6), m
         20    2.035E+01                                 F               0         IfW Y-component position of node 7 (blade 1, node 6), m
         21    1.738E+02                                 F               0         IfW Z-component position of node 7 (blade 1, node 6), m
         22    3.634E+00                                 F               0         IfW X-component position of node 8 (blade 1, node 7), m
         23    2.325E+01                                 F               0         IfW Y-component position of node 8 (blade 1, node 7), m
         24    1.764E+02                                 F               0         IfW Z-component position of node 8 (blade 1, node 7), m
         25    3.924E+00                                 F               0         IfW X-component position of node 9 (blade 1, node 8), m
         26    2.615E+01                                 F               0         IfW Y-component position of node 9 (blade 1, node 8), m
         27    1.789E+02                                 F               0         IfW Z-component position of node 9 (blade 1, node 8), m
         28    4.214E+00                                 F               0         IfW X-component position of node 10 (blade 1, node 9), m
         29    2.905E+01                                 F               0         IfW Y-component position of node 10 (blade 1, node 9), m
         30    1.815E+02                                 F               0         IfW Z-component position of node 10 (blade 1, node 9), m
         31    4.505E+00                                 F               0         IfW X-component position of node 11 (blade 1, node 10), m
         32    3.195E+01                                 F               0         IfW Y-component position of node 11 (blade 1, node 10), m
         33    1.840E+02                                 F               0         IfW Z-component position of node 11 (blade 1, node 10), m
         34    4.795E+00                                 F               0         IfW X-component position of node 12 (blade 1, node 11), m
         35    3.485E+01                                 F               0         IfW Y-component position of node 12 (blade 1, node 11), m
         36    1.866E+02                                 F               0         IfW Z-component position of node 12 (blade 1, node 11), m
         37    5.085E+00                                 F               0         IfW X-component position of node 13 (blade 1, node 12), m
         38    3.775E+01                                 F               0         IfW Y-component position of node 13 (blade 1, node 12), m
         39    1.891E+02                                 F               0         IfW Z-component position of node 13 (blade 1, node 12), m
         40    5.376E+00                                 F               0         IfW X-component position of node 14 (blade 1, node 13), m
         41    4.064E+01                                 F               0         IfW Y-component position of node 14 (blade 1, node 13), m
         42    1.916E+02                                 F               0         IfW Z-component position of node 14 (blade 1, node 13), m
         43    5.666E+00                                 F               0         IfW X-component position of node 15 (blade 1, node 14), m
         44    4.354E+01                                 F               0         IfW Y-component position of node 15 (blade 1, node 14), m
         45    1.942E+02                                 F               0         IfW Z-component position of node 15 (blade 1, node 14), m
         46    5.956E+00                                 F               0         IfW X-component position of node 16 (blade 1, node 15), m
         47    4.644E+01                                 F               0         IfW Y-component position of node 16 (blade 1, node 15), m
         48    1.967E+02                                 F               0         IfW Z-component position of node 16 (blade 1, node 15), m
         49    6.247E+00                                 F               0         IfW X-component position of node 17 (blade 1, node 16), m
         50    4.934E+01                                 F               0         IfW Y-component position of node 17 (blade 1, node 16), m
         51    1.993E+02                                 F               0         IfW Z-component position of node 17 (blade 1, node 16), m
         52    6.537E+00                                 F               0         IfW X-component position of node 18 (blade 1, node 17), m
         53    5.224E+01                                 F               0         IfW Y-component position of node 18 (blade 1, node 17), m
         54    2.018E+02                                 F               0         IfW Z-component position of node 18 (blade 1, node 17), m
         55    6.827E+00                                 F               0         IfW X-component position of node 19 (blade 1, node 18), m
         56    5.514E+01                                 F               0         IfW Y-component position of node 19 (blade 1, node 18), m
         57    2.044E+02                                 F               0         IfW Z-component position of node 19 (blade 1, node 18), m
         58    7.118E+00                                 F               0         IfW X-component position of node 20 (blade 1, node 19), m
         59    5.804E+01                                 F               0         IfW Y-component position of node 20 (blade 1, node 19), m
         60    2.069E+02                                 F               0         IfW Z-component position of node 20 (blade 1, node 19), m
         61    7.408E+00                                 F               0         IfW X-component position of node 21 (blade 1, node 20), m
         62    6.093E+01                                 F               0         IfW Y-component position of node 21 (blade 1, node 20), m
         63    2.095E+02                                 F               0         IfW Z-component position of node 21 (blade 1, node 20), m
         64    7.698E+00                                 F               0         IfW X-component position of node 22 (blade 1, node 21), m
         65    6.383E+01                                 F               0         IfW Y-component position of node 22 (blade 1, node 21), m
         66    2.120E+02                                 F               0         IfW Z-component position of node 22 (blade 1, node 21), m
         67    7.989E+00                                 F               0         IfW X-component position of node 23 (blade 1, node 22), m
         68    6.673E+01                                 F               0         IfW Y-component position of node 23 (blade 1, node 22), m
         69    2.145E+02                                 F               0         IfW Z-component position of node 23 (blade 1, node 22), m
         70    8.279E+00                                 F               0         IfW X-component position of node 24 (blade 1, node 23), m
         71    6.963E+01                                 F               0         IfW Y-component position of node 24 (blade 1, node 23), m
         72    2.171E+02                                 F               0         IfW Z-component position of node 24 (blade 1, node 23), m
         73    8.569E+00                                 F               0         IfW X-component position of node 25 (blade 1, node 24), m
         74    7.253E+01                                 F               0         IfW Y-component position of node 25 (blade 1, node 24), m
         75    2.196E+02                                 F               0         IfW Z-component position of node 25 (blade 1, node 24), m
         76    8.860E+00                                 F               0         IfW X-component position of node 26 (blade 1, node 25), m
         77    7.543E+01                                 F               0         IfW Y-component position of node 26 (blade 1, node 25), m
         78    2.222E+02                                 F               0         IfW Z-component position of node 26 (blade 1, node 25), m
         79    9.150E+00                                 F               0         IfW X-component position of node 27 (blade 1, node 26), m
         80    7.833E+01                                 F               0         IfW Y-component position of node 27 (blade 1, node 26), m
         81    2.247E+02                                 F               0         IfW Z-component position of node 27 (blade 1, node 26), m
         82    9.440E+00                                 F               0         IfW X-component position of node 28 (blade 1, node 27), m
         83    8.123E+01                                 F               0         IfW Y-component position of node 28 (blade 1, node 27), m
         84    2.273E+02                                 F               0         IfW Z-component position of node 28 (blade 1, node 27), m
         85    9.687E+00                                 F               0         IfW X-component position of node 29 (blade 1, node 28), m
         86    8.368E+01                                 F               0         IfW Y-component position of node 29 (blade 1, node 28), m
         87    2.294E+02                                 F               0         IfW Z-component position of node 29 (blade 1, node 28), m
         88    8.805E-01                                 F               0         IfW X-component position of node 30 (blade 2, node 1), m
         89   -1.235E+01                                 F               0         IfW Y-component position of node 30 (blade 2, node 1), m
         90    1.515E+02                                 F               0         IfW Z-component position of node 30 (blade 2, node 1), m
         91    9.497E-01                                 F               0         IfW X-component position of node 31 (blade 2, node 2), m
         92   -1.362E+01                                 F               0         IfW Y-component position of node 31 (blade 2, node 2), m
         93    1.519E+02                                 F               0         IfW Z-component position of node 31 (blade 2, node 2), m
         94    1.891E+00                                 F               0         IfW X-component position of node 32 (blade 2, node 3), m
         95   -3.083E+01                                 F               0         IfW Y-component position of node 32 (blade 2, node 3), m
         96    1.576E+02                                 F               0         IfW Z-component position of node 32 (blade 2, node 3), m
         97    2.091E+00                                 F               0         IfW X-component position of node 33 (blade 2, node 4), m
         98   -3.449E+01                                 F               0         IfW Y-component position of node 33 (blade 2, node 4), m
         99    1.588E+02                                 F               0         IfW Z-component position of node 33 (blade 2, node 4), m
        100    2.292E+00                                 F               0         IfW X-component position of node 34 (blade 2, node 5), m
        101   -3.816E+01                                 F               0         IfW Y-component position of node 34 (blade 2, node 5), m
        102    1.600E+02                                 F               0         IfW Z-component position of node 34 (blade 2, node 5), m
        103    2.492E+00                                 F               0         IfW X-component position of node 35 (blade 2, node 6), m
        104   -4.182E+01                                 F               0         IfW Y-component position of node 35 (blade 2, node 6), m
        105    1.612E+02                                 F               0         IfW Z-component position of node 35 (blade 2, node 6), m
        106    2.692E+00                                 F               0         IfW X-component position of node 36 (blade 2, node 7), m
        107   -4.549E+01                                 F               0         IfW Y-component position of node 36 (blade 2, node 7), m
        108    1.625E+02                                 F               0         IfW Z-component position of node 36 (blade 2, node 7), m
        109    2.893E+00                                 F               0         IfW X-component position of node 37 (blade 2, node 8), m
        110   -4.916E+01                                 F               0         IfW Y-component position of node 37 (blade 2, node 8), m
        111    1.637E+02                                 F               0         IfW Z-component position of node 37 (blade 2, node 8), m
        112    3.093E+00                                 F               0         IfW X-component position of node 38 (blade 2, node 9), m
        113   -5.282E+01                                 F               0         IfW Y-component position of node 38 (blade 2, node 9), m
        114    1.649E+02                                 F               0         IfW Z-component position of node 38 (blade 2, node 9), m
        115    3.294E+00                                 F               0         IfW X-component position of node 39 (blade 2, node 10), m
        116   -5.649E+01                                 F               0         IfW Y-component position of node 39 (blade 2, node 10), m
        117    1.661E+02                                 F               0         IfW Z-component position of node 39 (blade 2, node 10), m
        118    3.494E+00                                 F               0         IfW X-component position of node 40 (blade 2, node 11), m
        119   -6.016E+01                                 F               0         IfW Y-component position of node 40 (blade 2, node 11), m
        120    1.673E+02                                 F               0         IfW Z-component position of node 40 (blade 2, node 11), m
        121    3.695E+00                                 F               0         IfW X-component position of node 41 (blade 2, node 12), m
        122   -6.382E+01                                 F               0         IfW Y-component position of node 41 (blade 2, node 12), m
        123    1.685E+02                                 F               0         IfW Z-component position of node 41 (blade 2, node 12), m
        124    3.895E+00                                 F               0         IfW X-component position of node 42 (blade 2, node 13), m
        125   -6.749E+01                                 F               0         IfW Y-component position of node 42 (blade 2, node 13), m
        126    1.697E+02                                 F               0         IfW Z-component position of node 42 (blade 2, node 13), m
        127    4.096E+00                                 F               0         IfW X-component position of node 43 (blade 2, node 14), m
        128   -7.116E+01                                 F               0         IfW Y-component position of node 43 (blade 2, node 14), m
        129    1.710E+02                                 F               0         IfW Z-component position of node 43 (blade 2, node 14), m
        130    4.296E+00                                 F               0         IfW X-component position of node 44 (blade 2, node 15), m
        131   -7.482E+01                                 F               0         IfW Y-component position of node 44 (blade 2, node 15), m
        132    1.722E+02                                 F               0         IfW Z-component position of node 44 (blade 2, node 15), m
        133    4.497E+00                                 F               0         IfW X-component position of node 45 (blade 2, node 16), m
        134   -7.849E+01                                 F               0         IfW Y-component position of node 45 (blade 2, node 16), m
        135    1.734E+02                                 F               0         IfW Z-component position of node 45 (blade 2, node 16), m
        136    4.697E+00                                 F               0         IfW X-component position of node 46 (blade 2, node 17), m
        137   -8.216E+01                                 F               0         IfW Y-component position of node 46 (blade 2, node 17), m
        138    1.746E+02                                 F               0         IfW Z-component position of node 46 (blade 2, node 17), m
        139    4.898E+00                                 F               0         IfW X-component position of node 47 (blade 2, node 18), m
        140   -8.582E+01                                 F               0         IfW Y-component position of node 47 (blade 2, node 18), m
        141    1.758E+02                                 F               0         IfW Z-component position of node 47 (blade 2, node 18), m
        142    5.098E+00                                 F               0         IfW X-component position of node 48 (blade 2, node 19), m
        143   -8.949E+01                                 F               0         IfW Y-component position of node 48 (blade 2, node 19), m
        144    1.770E+02                                 F               0         IfW Z-component position of node 48 (blade 2, node 19), m
        145    5.299E+00                                 F               0         IfW X-component position of node 49 (blade 2, node 20), m
        146   -9.316E+01                                 F               0         IfW Y-component position of node 49 (blade 2, node 20), m
        147    1.782E+02                                 F               0         IfW Z-component position of node 49 (blade 2, node 20), m
        148    5.499E+00                                 F               0         IfW X-component position of node 50 (blade 2, node 21), m
        149   -9.682E+01                                 F               0         IfW Y-component position of node 50 (blade 2, node 21), m
        150    1.795E+02                                 F               0         IfW Z-component position of node 50 (blade 2, node 21), m
        151    5.700E+00                                 F               0         IfW X-component position of node 51 (blade 2, node 22), m
        152   -1.005E+02                                 F               0         IfW Y-component position of node 51 (blade 2, node 22), m
        153    1.807E+02                                 F               0         IfW Z-component position of node 51 (blade 2, node 22), m
        154    5.900E+00                                 F               0         IfW X-component position of node 52 (blade 2, node 23), m
        155   -1.042E+02                                 F               0         IfW Y-component position of node 52 (blade 2, node 23), m
        156    1.819E+02                                 F               0         IfW Z-component position of node 52 (blade 2, node 23), m
        157    6.100E+00                                 F               0         IfW X-component position of node 53 (blade 2, node 24), m
        158   -1.078E+02                                 F               0         IfW Y-component position of node 53 (blade 2, node 24), m
        159    1.831E+02                                 F               0         IfW Z-component position of node 53 (blade 2, node 24), m
        160    6.301E+00                                 F               0         IfW X-component position of node 54 (blade 2, node 25), m
        161   -1.115E+02                                 F               0         IfW Y-component position of node 54 (blade 2, node 25), m
        162    1.843E+02                                 F               0         IfW Z-component position of node 54 (blade 2, node 25), m
        163    6.501E+00                                 F               0         IfW X-component position of node 55 (blade 2, node 26), m
        164   -1.152E+02                                 F               0         IfW Y-component position of node 55 (blade 2, node 26), m
        165    1.855E+02                                 F               0         IfW Z-component position of node 55 (blade 2, node 26), m
        166    6.702E+00                                 F               0         IfW X-component position of node 56 (blade 2, node 27), m
        167   -1.188E+02                                 F               0         IfW Y-component position of node 56 (blade 2, node 27), m
        168    1.868E+02                                 F               0         IfW Z-component position of node 56 (blade 2, node 27), m
        169    6.872E+00                                 F               0         IfW X-component position of node 57 (blade 2, node 28), m
        170   -1.219E+02                                 F               0         IfW Y-component position of node 57 (blade 2, node 28), m
        171    1.878E+02                                 F               0         IfW Z-component position of node 57 (blade 2, node 28), m