
Linearized model: Predictions were generated on 06-Feb-2024 at 16:18:08 using OpenFAST, compiled as a 64-bit application using single precision at commit v3.5.1
 linked with  NWTC Subroutine Library; ElastoDyn; InflowWind; AeroDyn; ServoDyn; HydroDyn; MAP++ (<1.20.10>, <Oct-20-2023>)

Description from the FAST input file: CCT-9 Campign 4 model. Input files to be run with OpenFAST 3.5.0. GitHub branch from Lu Wang (https://github.com/luwang00/openfast/tree/dev) compiled on March 7, 2023.

Simulation information:
   Simulation time:                  1004.2250 s
   Rotor Speed:                         1.0419 rad/s
   Azimuth:                             5.9030 rad
   Wind Speed:                         12.0000 m/s
   Number of continuous states:        18
   Number of discrete states:           0
   Number of constraint states:         0
   Number of inputs:                 1890
   Number of outputs:                  19
   Jacobians included in this file?    No

Order of continuous states:
   Row/Column Operating Point                     Rotating Frame? Derivative Order Description
   ---------- ---------------                     --------------- ---------------- -----------
          1    1.231E+01                                 F               2         Platform horizontal surge translation DOF (internal DOF index = DOF_Sg), m
          2   -2.567E-01                                 F               2         Platform vertical heave translation DOF (internal DOF index = DOF_Hv), m
          3    4.698E-02                                 F               2         Platform roll tilt rotation DOF (internal DOF index = DOF_R), rad
          4    1.558E-01                                 F               2         Platform pitch tilt rotation DOF (internal DOF index = DOF_P), rad
          5    1.080E+00                                 F               2         1st tower fore-aft bending mode DOF (internal DOF index = DOF_TFA1), m
          6    1.737E-01                                 F               2         1st tower side-to-side bending mode DOF (internal DOF index = DOF_TSS1), m
          7    1.605E-03                                 F               2         2nd tower fore-aft bending mode DOF (internal DOF index = DOF_TFA2), m
          8    7.987E-05                                 F               2         2nd tower side-to-side bending mode DOF (internal DOF index = DOF_TSS2), m
          9    4.332E+00                                 F               2         Variable speed generator DOF (internal DOF index = DOF_GeAz), rad
         10   -1.319E-04                                 F               2         First time derivative of Platform horizontal surge translation DOF (internal DOF index = DOF_Sg), m/s
         11    2.071E-03                                 F               2         First time derivative of Platform vertical heave translation DOF (internal DOF index = DOF_Hv), m/s
         12   -3.699E-06                                 F               2         First time derivative of Platform roll tilt rotation DOF (internal DOF index = DOF_R), rad/s
         13   -1.007E-05                                 F               2         First time derivative of Platform pitch tilt rotation DOF (internal DOF index = DOF_P), rad/s
         14    1.450E-03                                 F               2         First time derivative of 1st tower fore-aft bending mode DOF (internal DOF index = DOF_TFA1), m/s
         15   -1.484E-04                                 F               2         First time derivative of 1st tower side-to-side bending mode DOF (internal DOF index = DOF_TSS1), m/s
         16   -2.539E-06                                 F               2         First time derivative of 2nd tower fore-aft bending mode DOF (internal DOF index = DOF_TFA2), m/s
         17   -1.536E-06                                 F               2         First time derivative of 2nd tower side-to-side bending mode DOF (internal DOF index = DOF_TSS2), m/s
         18    1.042E+00                                 F               2         First time derivative of Variable speed generator DOF (internal DOF index = DOF_GeAz), rad/s

Order of continuous state derivatives:
   Row/Column Operating Point                     Rotating Frame? Derivative Order Description
   ---------- ---------------                     --------------- ---------------- -----------
          1   -1.319E-04                                 F               2         First time derivative of Platform horizontal surge translation DOF (internal DOF index = DOF_Sg), m/s
          2    2.071E-03                                 F               2         First time derivative of Platform vertical heave translation DOF (internal DOF index = DOF_Hv), m/s
          3   -3.699E-06                                 F               2         First time derivative of Platform roll tilt rotation DOF (internal DOF index = DOF_R), rad/s
          4   -1.007E-05                                 F               2         First time derivative of Platform pitch tilt rotation DOF (internal DOF index = DOF_P), rad/s
          5    1.450E-03                                 F               2         First time derivative of 1st tower fore-aft bending mode DOF (internal DOF index = DOF_TFA1), m/s
          6   -1.484E-04                                 F               2         First time derivative of 1st tower side-to-side bending mode DOF (internal DOF index = DOF_TSS1), m/s
          7   -2.539E-06                                 F               2         First time derivative of 2nd tower fore-aft bending mode DOF (internal DOF index = DOF_TFA2), m/s
          8   -1.536E-06                                 F               2         First time derivative of 2nd tower side-to-side bending mode DOF (internal DOF index = DOF_TSS2), m/s
          9    1.042E+00                                 F               2         First time derivative of Variable speed generator DOF (internal DOF index = DOF_GeAz), rad/s
         10   -3.043E-04                                 F               2         First time derivative of First time derivative of Platform horizontal surge translation DOF (internal DOF index = DOF_Sg), m/s/s
         11    1.410E-03                                 F               2         First time derivative of First time derivative of Platform vertical heave translation DOF (internal DOF index = DOF_Hv), m/s/s
         12   -4.546E-05                                 F               2         First time derivative of First time derivative of Platform roll tilt rotation DOF (internal DOF index = DOF_R), rad/s/s
         13   -1.502E-05                                 F               2         First time derivative of First time derivative of Platform pitch tilt rotation DOF (internal DOF index = DOF_P), rad/s/s
         14    5.345E-03                                 F               2         First time derivative of First time derivative of 1st tower fore-aft bending mode DOF (internal DOF index = DOF_TFA1), m/s/s
         15    2.179E-03                                 F               2         First time derivative of First time derivative of 1st tower side-to-side bending mode DOF (internal DOF index = DOF_TSS1), m/s/s
         16    3.312E-05                                 F               2         First time derivative of First time derivative of 2nd tower fore-aft bending mode DOF (internal DOF index = DOF_TFA2), m/s/s
         17   -3.245E-07                                 F               2         First time derivative of First time derivative of 2nd tower side-to-side bending mode DOF (internal DOF index = DOF_TSS2), m/s/s
         18   -1.489E-04                                 F               2         First time derivative of First time derivative of Variable speed generator DOF (internal DOF index = DOF_GeAz), rad/s/s

Order of inputs:
     Column   Operating Point                     Rotating Frame? Derivative Order Description
   ---------- ---------------                     --------------- ---------------- -----------
          1    8.737E+01                                 F               0         Blade 1 X force, node 1, N
          2    7.865E+01                                 F               0         Blade 1 Y force, node 1, N
          3   -5.236E+01                                 F               0         Blade 1 Z force, node 1, N
          4    3.936E+02                                 F               0         Blade 1 X force, node 2, N
          5    1.577E+02                                 F               0         Blade 1 Y force, node 2, N
          6   -1.657E+02                                 F               0         Blade 1 Z force, node 2, N
          7    5.310E+02                                 F               0         Blade 1 X force, node 3, N
          8    8.457E+01                                 F               0         Blade 1 Y force, node 3, N
          9   -1.778E+02                                 F               0         Blade 1 Z force, node 3, N
         10    7.102E+02                                 F               0         Blade 1 X force, node 4, N
         11    2.983E+01                                 F               0         Blade 1 Y force, node 4, N
         12   -2.081E+02                                 F               0         Blade 1 Z force, node 4, N
         13    8.894E+02                                 F               0         Blade 1 X force, node 5, N
         14   -2.491E+01                                 F               0         Blade 1 Y force, node 5, N
         15   -2.384E+02                                 F               0         Blade 1 Z force, node 5, N
         16    1.069E+03                                 F               0         Blade 1 X force, node 6, N
         17   -7.966E+01                                 F               0         Blade 1 Y force, node 6, N
         18   -2.687E+02                                 F               0         Blade 1 Z force, node 6, N
         19    1.248E+03                                 F               0         Blade 1 X force, node 7, N
         20   -1.344E+02                                 F               0         Blade 1 Y force, node 7, N
         21   -2.990E+02                                 F               0         Blade 1 Z force, node 7, N
         22    1.427E+03                                 F               0         Blade 1 X force, node 8, N
         23   -1.891E+02                                 F               0         Blade 1 Y force, node 8, N
         24   -3.293E+02                                 F               0         Blade 1 Z force, node 8, N
         25    1.606E+03                                 F               0         Blade 1 X force, node 9, N
         26   -2.439E+02                                 F               0         Blade 1 Y force, node 9, N
         27   -3.596E+02                                 F               0         Blade 1 Z force, node 9, N
         28    1.785E+03                                 F               0         Blade 1 X force, node 10, N
         29   -2.986E+02                                 F               0         Blade 1 Y force, node 10, N
         30   -3.899E+02                                 F               0         Blade 1 Z force, node 10, N
         31    1.965E+03                                 F               0         Blade 1 X force, node 11, N
         32   -3.534E+02                                 F               0         Blade 1 Y force, node 11, N
         33   -4.202E+02                                 F               0         Blade 1 Z force, node 11, N
         34    2.144E+03                                 F               0         Blade 1 X force, node 12, N
         35   -4.081E+02                                 F               0         Blade 1 Y force, node 12, N
         36   -4.505E+02                                 F               0         Blade 1 Z force, node 12, N
         37    2.323E+03                                 F               0         Blade 1 X force, node 13, N
         38   -4.629E+02                                 F               0         Blade 1 Y force, node 13, N
         39   -4.808E+02                                 F               0         Blade 1 Z force, node 13, N
         40    2.502E+03                                 F               0         Blade 1 X force, node 14, N
         41   -5.176E+02                                 F               0         Blade 1 Y force, node 14, N
         42   -5.111E+02                                 F               0         Blade 1 Z force, node 14, N
         43    2.681E+03                                 F               0         Blade 1 X force, node 15, N
         44   -5.723E+02                                 F               0         Blade 1 Y force, node 15, N
         45   -5.414E+02                                 F               0         Blade 1 Z force, node 15, N
         46    2.860E+03                                 F               0         Blade 1 X force, node 16, N
         47   -6.271E+02                                 F               0         Blade 1 Y force, node 16, N
         48   -5.717E+02                                 F               0         Blade 1 Z force, node 16, N
         49    3.525E+03                                 F               0         Blade 1 X force, node 17, N
         50   -7.872E+02                                 F               0         Blade 1 Y force, node 17, N
         51   -6.995E+02                                 F               0         Blade 1 Z force, node 17, N
         52    2.699E+03                                 F               0         Blade 1 X force, node 18, N
         53   -5.800E+02                                 F               0         Blade 1 Y force, node 18, N
         54   -5.436E+02                                 F               0         Blade 1 Z force, node 18, N
         55    3.321E+03                                 F               0         Blade 1 X force, node 19, N
         56   -6.755E+02                                 F               0         Blade 1 Y force, node 19, N
         57   -6.826E+02                                 F               0         Blade 1 Z force, node 19, N
         58    2.839E+03                                 F               0         Blade 1 X force, node 20, N
         59   -5.474E+02                                 F               0         Blade 1 Y force, node 20, N
         60   -5.941E+02                                 F               0         Blade 1 Z force, node 20, N
         61    4.204E+03                                 F               0         Blade 1 X force, node 21, N
         62   -7.615E+02                                 F               0         Blade 1 Y force, node 21, N
         63   -8.973E+02                                 F               0         Blade 1 Z force, node 21, N
         64    3.721E+03                                 F               0         Blade 1 X force, node 22, N
         65   -6.327E+02                                 F               0         Blade 1 Y force, node 22, N
         66   -8.089E+02                                 F               0         Blade 1 Z force, node 22, N
         67    3.830E+03                                 F               0         Blade 1 X force, node 23, N
         68   -6.145E+02                                 F               0         Blade 1 Y force, node 23, N
         69   -8.459E+02                                 F               0         Blade 1 Z force, node 23, N
         70    4.009E+03                                 F               0         Blade 1 X force, node 24, N
         71   -6.069E+02                                 F               0         Blade 1 Y force, node 24, N
         72   -8.982E+02                                 F               0         Blade 1 Z force, node 24, N
         73    4.117E+03                                 F               0         Blade 1 X force, node 25, N
         74   -5.882E+02                                 F               0         Blade 1 Y force, node 25, N
         75   -9.351E+02                                 F               0         Blade 1 Z force, node 25, N
         76    4.248E+03                                 F               0         Blade 1 X force, node 26, N
         77   -5.730E+02                                 F               0         Blade 1 Y force, node 26, N
         78   -9.770E+02                                 F               0         Blade 1 Z force, node 26, N
         79    5.101E+03                                 F               0         Blade 1 X force, node 27, N
         80   -6.475E+02                                 F               0         Blade 1 Y force, node 27, N
         81   -1.188E+03                                 F               0         Blade 1 Z force, node 27, N
         82    3.789E+03                                 F               0         Blade 1 X force, node 28, N
         83   -4.529E+02                                 F               0         Blade 1 Y force, node 28, N
         84   -8.921E+02                                 F               0         Blade 1 Z force, node 28, N
         85    4.642E+03                                 F               0         Blade 1 X force, node 29, N
         86   -5.273E+02                                 F               0         Blade 1 Y force, node 29, N
         87   -1.103E+03                                 F               0         Blade 1 Z force, node 29, N
         88    3.955E+03                                 F               0         Blade 1 X force, node 30, N
         89   -4.269E+02                                 F               0         Blade 1 Y force, node 30, N
         90   -9.476E+02                                 F               0         Blade 1 Z force, node 30, N
         91    5.723E+03                                 F               0         Blade 1 X force, node 31, N
         92   -5.816E+02                                 F               0         Blade 1 Y force, node 31, N
         93   -1.384E+03                                 F               0         Blade 1 Z force, node 31, N
         94    5.036E+03                                 F               0         Blade 1 X force, node 32, N
         95   -4.811E+02                                 F               0         Blade 1 Y force, node 32, N
         96   -1.229E+03                                 F               0         Blade 1 Z force, node 32, N
         97    5.166E+03                                 F               0         Blade 1 X force, node 33, N
         98   -4.656E+02                                 F               0         Blade 1 Y force, node 33, N
         99   -1.270E+03                                 F               0         Blade 1 Z force, node 33, N
        100    5.297E+03                                 F               0         Blade 1 X force, node 34, N
        101   -4.501E+02                                 F               0         Blade 1 Y force, node 34, N
        102   -1.312E+03                                 F               0         Blade 1 Z force, node 34, N
        103    5.429E+03                                 F               0         Blade 1 X force, node 35, N
        104   -4.346E+02                                 F               0         Blade 1 Y force, node 35, N
        105   -1.355E+03                                 F               0         Blade 1 Z force, node 35, N
        106    5.559E+03                                 F               0         Blade 1 X force, node 36, N
        107   -4.190E+02                                 F               0         Blade 1 Y force, node 36, N
        108   -1.396E+03                                 F               0         Blade 1 Z force, node 36, N
        109    6.657E+03                                 F               0         Blade 1 X force, node 37, N
        110   -4.703E+02                                 F               0         Blade 1 Y force, node 37, N
        111   -1.683E+03                                 F               0         Blade 1 Z force, node 37, N
        112    4.853E+03                                 F               0         Blade 1 X force, node 38, N
        113   -3.213E+02                                 F               0         Blade 1 Y force, node 38, N
        114   -1.235E+03                                 F               0         Blade 1 Z force, node 38, N
        115    5.953E+03                                 F               0         Blade 1 X force, node 39, N
        116   -3.726E+02                                 F               0         Blade 1 Y force, node 39, N
        117   -1.523E+03                                 F               0         Blade 1 Z force, node 39, N
        118    5.080E+03                                 F               0         Blade 1 X force, node 40, N
        119   -3.003E+02                                 F               0         Blade 1 Y force, node 40, N
        120   -1.306E+03                                 F               0         Blade 1 Z force, node 40, N
        121    7.222E+03                                 F               0         Blade 1 X force, node 41, N
        122   -3.986E+02                                 F               0         Blade 1 Y force, node 41, N
        123   -1.866E+03                                 F               0         Blade 1 Z force, node 41, N
        124    6.347E+03                                 F               0         Blade 1 X force, node 42, N
        125   -3.261E+02                                 F               0         Blade 1 Y force, node 42, N
        126   -1.649E+03                                 F               0         Blade 1 Z force, node 42, N
        127    6.477E+03                                 F               0         Blade 1 X force, node 43, N
        128   -3.104E+02                                 F               0         Blade 1 Y force, node 43, N
        129   -1.690E+03                                 F               0         Blade 1 Z force, node 43, N
        130    6.642E+03                                 F               0         Blade 1 X force, node 44, N
        131   -2.963E+02                                 F               0         Blade 1 Y force, node 44, N
        132   -1.741E+03                                 F               0         Blade 1 Z force, node 44, N
        133    6.703E+03                                 F               0         Blade 1 X force, node 45, N
        134   -2.776E+02                                 F               0         Blade 1 Y force, node 45, N
        135   -1.765E+03                                 F               0         Blade 1 Z force, node 45, N
        136    6.868E+03                                 F               0         Blade 1 X force, node 46, N
        137   -2.635E+02                                 F               0         Blade 1 Y force, node 46, N
        138   -1.816E+03                                 F               0         Blade 1 Z force, node 46, N
        139    8.227E+03                                 F               0         Blade 1 X force, node 47, N
        140   -2.898E+02                                 F               0         Blade 1 Y force, node 47, N
        141   -2.184E+03                                 F               0         Blade 1 Z force, node 47, N
        142    5.901E+03                                 F               0         Blade 1 X force, node 48, N
        143   -1.903E+02                                 F               0         Blade 1 Y force, node 48, N
        144   -1.573E+03                                 F               0         Blade 1 Z force, node 48, N
        145    7.259E+03                                 F               0         Blade 1 X force, node 49, N
        146   -2.166E+02                                 F               0         Blade 1 Y force, node 49, N
        147   -1.941E+03                                 F               0         Blade 1 Z force, node 49, N
        148    6.213E+03                                 F               0         Blade 1 X force, node 50, N
        149   -1.706E+02                                 F               0         Blade 1 Y force, node 50, N
        150   -1.667E+03                                 F               0         Blade 1 Z force, node 50, N
        151    8.695E+03                                 F               0         Blade 1 X force, node 51, N
        152   -2.156E+02                                 F               0         Blade 1 Y force, node 51, N
        153   -2.341E+03                                 F               0         Blade 1 Z force, node 51, N
        154    7.651E+03                                 F               0         Blade 1 X force, node 52, N
        155   -1.698E+02                                 F               0         Blade 1 Y force, node 52, N
        156   -2.067E+03                                 F               0         Blade 1 Z force, node 52, N
        157    7.783E+03                                 F               0         Blade 1 X force, node 53, N
        158   -1.543E+02                                 F               0         Blade 1 Y force, node 53, N
        159   -2.109E+03                                 F               0         Blade 1 Z force, node 53, N
        160    8.002E+03                                 F               0         Blade 1 X force, node 54, N
        161   -1.402E+02                                 F               0         Blade 1 Y force, node 54, N
        162   -2.175E+03                                 F               0         Blade 1 Z force, node 54, N
        163    7.960E+03                                 F               0         Blade 1 X force, node 55, N
        164   -1.218E+02                                 F               0         Blade 1 Y force, node 55, N
        165   -2.170E+03                                 F               0         Blade 1 Z force, node 55, N
        166    8.178E+03                                 F               0         Blade 1 X force, node 56, N
        167   -1.077E+02                                 F               0         Blade 1 Y force, node 56, N
        168   -2.236E+03                                 F               0         Blade 1 Z force, node 56, N
        169    9.813E+03                                 F               0         Blade 1 X force, node 57, N
        170   -1.074E+02                                 F               0         Blade 1 Y force, node 57, N
        171   -2.691E+03                                 F               0         Blade 1 Z force, node 57, N
        172    6.937E+03                                 F               0         Blade 1 X force, node 58, N
        173   -6.123E+01                                 F               0         Blade 1 Y force, node 58, N
        174   -1.907E+03                                 F               0         Blade 1 Z force, node 58, N
        175    8.572E+03                                 F               0         Blade 1 X force, node 59, N
        176   -6.094E+01                                 F               0         Blade 1 Y force, node 59, N
        177   -2.362E+03                                 F               0         Blade 1 Z force, node 59, N
        178    7.371E+03                                 F               0         Blade 1 X force, node 60, N
        179   -3.981E+01                                 F               0         Blade 1 Y force, node 60, N
        180   -2.036E+03                                 F               0         Blade 1 Z force, node 60, N
        181    1.017E+04                                 F               0         Blade 1 X force, node 61, N
        182   -3.526E+01                                 F               0         Blade 1 Y force, node 61, N
        183   -2.815E+03                                 F               0         Blade 1 Z force, node 61, N
        184    8.964E+03                                 F               0         Blade 1 X force, node 62, N
        185   -1.399E+01                                 F               0         Blade 1 Y force, node 62, N
        186   -2.488E+03                                 F               0         Blade 1 Z force, node 62, N
        187    9.093E+03                                 F               0         Blade 1 X force, node 63, N
        188    1.748E+00                                 F               0         Blade 1 Y force, node 63, N
        189   -2.529E+03                                 F               0         Blade 1 Z force, node 63, N
        190    9.377E+03                                 F               0         Blade 1 X force, node 64, N
        191    1.783E+01                                 F               0         Blade 1 Y force, node 64, N
        192   -2.614E+03                                 F               0         Blade 1 Z force, node 64, N
        193    9.200E+03                                 F               0         Blade 1 X force, node 65, N
        194    3.262E+01                                 F               0         Blade 1 Y force, node 65, N
        195   -2.570E+03                                 F               0         Blade 1 Z force, node 65, N
        196    9.488E+03                                 F               0         Blade 1 X force, node 66, N
        197    4.851E+01                                 F               0         Blade 1 Y force, node 66, N