
Linearized model: Predictions were generated on 06-Feb-2024 at 16:18:08 using OpenFAST, compiled as a 64-bit application using single precision at commit v3.5.1
 linked with  NWTC Subroutine Library; ElastoDyn; InflowWind; AeroDyn; ServoDyn; HydroDyn; MAP++ (<1.20.10>, <Oct-20-2023>)

Description from the FAST input file: CCT-9 Campign 4 model. Input files to be run with OpenFAST 3.5.0. GitHub branch from Lu Wang (https://github.com/luwang00/openfast/tree/dev) compiled on March 7, 2023.

Simulation information:
   Simulation time:                  1000.7500 s
   Rotor Speed:                         1.0419 rad/s
   Azimuth:                             2.2819 rad
   Wind Speed:                         12.0000 m/s
   Number of continuous states:         0
   Number of discrete states:           0
   Number of constraint states:         0
   Number of inputs:                  303
   Number of outputs:                   1
   Jacobians included in this file?    No

Order of inputs:
     Column   Operating Point                     Rotating Frame? Derivative Order Description
   ---------- ---------------                     --------------- ---------------- -----------
          1   -1.080E+01                                 F               0         X-component position of node 1 (hub), m
          2    0.000E+00                                 F               0         Y-component position of node 1 (hub), m
          3    1.497E+02                                 F               0         Z-component position of node 1 (hub), m
          4    2.482E+01                                 F               0         X-component position of node 2 (blade 1, node 1), m
          5   -1.176E+01                                 F               0         Y-component position of node 2 (blade 1, node 1), m
          6    1.455E+02                                 F               0         Z-component position of node 2 (blade 1, node 1), m
          7    2.458E+01                                 F               0         X-component position of node 3 (blade 1, node 2), m
          8   -1.273E+01                                 F               0         Y-component position of node 3 (blade 1, node 2), m
          9    1.446E+02                                 F               0         Z-component position of node 3 (blade 1, node 2), m
         10    2.124E+01                                 F               0         X-component position of node 4 (blade 1, node 3), m
         11   -2.588E+01                                 F               0         Y-component position of node 4 (blade 1, node 3), m
         12    1.325E+02                                 F               0         Z-component position of node 4 (blade 1, node 3), m
         13    2.053E+01                                 F               0         X-component position of node 5 (blade 1, node 4), m
         14   -2.869E+01                                 F               0         Y-component position of node 5 (blade 1, node 4), m
         15    1.300E+02                                 F               0         Z-component position of node 5 (blade 1, node 4), m
         16    1.982E+01                                 F               0         X-component position of node 6 (blade 1, node 5), m
         17   -3.149E+01                                 F               0         Y-component position of node 6 (blade 1, node 5), m
         18    1.274E+02                                 F               0         Z-component position of node 6 (blade 1, node 5), m
         19    1.911E+01                                 F               0         X-component position of node 7 (blade 1, node 6), m
         20   -3.429E+01                                 F               0         Y-component position of node 7 (blade 1, node 6), m
         21    1.248E+02                                 F               0         Z-component position of node 7 (blade 1, node 6), m
         22    1.840E+01                                 F               0         X-component position of node 8 (blade 1, node 7), m
         23   -3.710E+01                                 F               0         Y-component position of node 8 (blade 1, node 7), m
         24    1.222E+02                                 F               0         Z-component position of node 8 (blade 1, node 7), m
         25    1.769E+01                                 F               0         X-component position of node 9 (blade 1, node 8), m
         26   -3.990E+01                                 F               0         Y-component position of node 9 (blade 1, node 8), m
         27    1.197E+02                                 F               0         Z-component position of node 9 (blade 1, node 8), m
         28    1.698E+01                                 F               0         X-component position of node 10 (blade 1, node 9), m
         29   -4.270E+01                                 F               0         Y-component position of node 10 (blade 1, node 9), m
         30    1.171E+02                                 F               0         Z-component position of node 10 (blade 1, node 9), m
         31    1.627E+01                                 F               0         X-component position of node 11 (blade 1, node 10), m
         32   -4.550E+01                                 F               0         Y-component position of node 11 (blade 1, node 10), m
         33    1.145E+02                                 F               0         Z-component position of node 11 (blade 1, node 10), m
         34    1.556E+01                                 F               0         X-component position of node 12 (blade 1, node 11), m
         35   -4.831E+01                                 F               0         Y-component position of node 12 (blade 1, node 11), m
         36    1.120E+02                                 F               0         Z-component position of node 12 (blade 1, node 11), m
         37    1.485E+01                                 F               0         X-component position of node 13 (blade 1, node 12), m
         38   -5.111E+01                                 F               0         Y-component position of node 13 (blade 1, node 12), m
         39    1.094E+02                                 F               0         Z-component position of node 13 (blade 1, node 12), m
         40    1.414E+01                                 F               0         X-component position of node 14 (blade 1, node 13), m
         41   -5.391E+01                                 F               0         Y-component position of node 14 (blade 1, node 13), m
         42    1.068E+02                                 F               0         Z-component position of node 14 (blade 1, node 13), m
         43    1.343E+01                                 F               0         X-component position of node 15 (blade 1, node 14), m
         44   -5.672E+01                                 F               0         Y-component position of node 15 (blade 1, node 14), m
         45    1.043E+02                                 F               0         Z-component position of node 15 (blade 1, node 14), m
         46    1.272E+01                                 F               0         X-component position of node 16 (blade 1, node 15), m
         47   -5.952E+01                                 F               0         Y-component position of node 16 (blade 1, node 15), m
         48    1.017E+02                                 F               0         Z-component position of node 16 (blade 1, node 15), m
         49    1.201E+01                                 F               0         X-component position of node 17 (blade 1, node 16), m
         50   -6.232E+01                                 F               0         Y-component position of node 17 (blade 1, node 16), m
         51    9.913E+01                                 F               0         Z-component position of node 17 (blade 1, node 16), m
         52    1.130E+01                                 F               0         X-component position of node 18 (blade 1, node 17), m
         53   -6.513E+01                                 F               0         Y-component position of node 18 (blade 1, node 17), m
         54    9.656E+01                                 F               0         Z-component position of node 18 (blade 1, node 17), m
         55    1.059E+01                                 F               0         X-component position of node 19 (blade 1, node 18), m
         56   -6.793E+01                                 F               0         Y-component position of node 19 (blade 1, node 18), m
         57    9.399E+01                                 F               0         Z-component position of node 19 (blade 1, node 18), m
         58    9.882E+00                                 F               0         X-component position of node 20 (blade 1, node 19), m
         59   -7.073E+01                                 F               0         Y-component position of node 20 (blade 1, node 19), m
         60    9.142E+01                                 F               0         Z-component position of node 20 (blade 1, node 19), m
         61    9.172E+00                                 F               0         X-component position of node 21 (blade 1, node 20), m
         62   -7.353E+01                                 F               0         Y-component position of node 21 (blade 1, node 20), m
         63    8.885E+01                                 F               0         Z-component position of node 21 (blade 1, node 20), m
         64    8.462E+00                                 F               0         X-component position of node 22 (blade 1, node 21), m
         65   -7.634E+01                                 F               0         Y-component position of node 22 (blade 1, node 21), m
         66    8.628E+01                                 F               0         Z-component position of node 22 (blade 1, node 21), m
         67    7.752E+00                                 F               0         X-component position of node 23 (blade 1, node 22), m
         68   -7.914E+01                                 F               0         Y-component position of node 23 (blade 1, node 22), m
         69    8.371E+01                                 F               0         Z-component position of node 23 (blade 1, node 22), m
         70    7.042E+00                                 F               0         X-component position of node 24 (blade 1, node 23), m
         71   -8.194E+01                                 F               0         Y-component position of node 24 (blade 1, node 23), m
         72    8.115E+01                                 F               0         Z-component position of node 24 (blade 1, node 23), m
         73    6.332E+00                                 F               0         X-component position of node 25 (blade 1, node 24), m
         74   -8.475E+01                                 F               0         Y-component position of node 25 (blade 1, node 24), m
         75    7.858E+01                                 F               0         Z-component position of node 25 (blade 1, node 24), m
         76    5.622E+00                                 F               0         X-component position of node 26 (blade 1, node 25), m
         77   -8.755E+01                                 F               0         Y-component position of node 26 (blade 1, node 25), m
         78    7.601E+01                                 F               0         Z-component position of node 26 (blade 1, node 25), m
         79    4.912E+00                                 F               0         X-component position of node 27 (blade 1, node 26), m
         80   -9.035E+01                                 F               0         Y-component position of node 27 (blade 1, node 26), m
         81    7.344E+01                                 F               0         Z-component position of node 27 (blade 1, node 26), m
         82    4.202E+00                                 F               0         X-component position of node 28 (blade 1, node 27), m
         83   -9.315E+01                                 F               0         Y-component position of node 28 (blade 1, node 27), m
         84    7.087E+01                                 F               0         Z-component position of node 28 (blade 1, node 27), m
         85    3.600E+00                                 F               0         X-component position of node 29 (blade 1, node 28), m
         86   -9.553E+01                                 F               0         Y-component position of node 29 (blade 1, node 28), m
         87    6.869E+01                                 F               0         Z-component position of node 29 (blade 1, node 28), m
         88    2.540E+01                                 F               0         X-component position of node 30 (blade 2, node 1), m
         89   -2.433E+00                                 F               0         Y-component position of node 30 (blade 2, node 1), m
         90    1.476E+02                                 F               0         Z-component position of node 30 (blade 2, node 1), m
         91    2.530E+01                                 F               0         X-component position of node 31 (blade 2, node 2), m
         92   -1.152E+00                                 F               0         Y-component position of node 31 (blade 2, node 2), m
         93    1.473E+02                                 F               0         Z-component position of node 31 (blade 2, node 2), m
         94    2.388E+01                                 F               0         X-component position of node 32 (blade 2, node 3), m
         95    1.626E+01                                 F               0         Y-component position of node 32 (blade 2, node 3), m
         96    1.423E+02                                 F               0         Z-component position of node 32 (blade 2, node 3), m
         97    2.358E+01                                 F               0         X-component position of node 33 (blade 2, node 4), m
         98    1.997E+01                                 F               0         Y-component position of node 33 (blade 2, node 4), m
         99    1.413E+02                                 F               0         Z-component position of node 33 (blade 2, node 4), m
        100    2.328E+01                                 F               0         X-component position of node 34 (blade 2, node 5), m
        101    2.368E+01                                 F               0         Y-component position of node 34 (blade 2, node 5), m
        102    1.402E+02                                 F               0         Z-component position of node 34 (blade 2, node 5), m
        103    2.298E+01                                 F               0         X-component position of node 35 (blade 2, node 6), m
        104    2.739E+01                                 F               0         Y-component position of node 35 (blade 2, node 6), m
        105    1.392E+02                                 F               0         Z-component position of node 35 (blade 2, node 6), m
        106    2.267E+01                                 F               0         X-component position of node 36 (blade 2, node 7), m
        107    3.110E+01                                 F               0         Y-component position of node 36 (blade 2, node 7), m
        108    1.381E+02                                 F               0         Z-component position of node 36 (blade 2, node 7), m
        109    2.237E+01                                 F               0         X-component position of node 37 (blade 2, node 8), m
        110    3.481E+01                                 F               0         Y-component position of node 37 (blade 2, node 8), m
        111    1.371E+02                                 F               0         Z-component position of node 37 (blade 2, node 8), m
        112    2.207E+01                                 F               0         X-component position of node 38 (blade 2, node 9), m
        113    3.851E+01                                 F               0         Y-component position of node 38 (blade 2, node 9), m
        114    1.360E+02                                 F               0         Z-component position of node 38 (blade 2, node 9), m
        115    2.177E+01                                 F               0         X-component position of node 39 (blade 2, node 10), m
        116    4.222E+01                                 F               0         Y-component position of node 39 (blade 2, node 10), m
        117    1.350E+02                                 F               0         Z-component position of node 39 (blade 2, node 10), m
        118    2.147E+01                                 F               0         X-component position of node 40 (blade 2, node 11), m
        119    4.593E+01                                 F               0         Y-component position of node 40 (blade 2, node 11), m
        120    1.339E+02                                 F               0         Z-component position of node 40 (blade 2, node 11), m
        121    2.116E+01                                 F               0         X-component position of node 41 (blade 2, node 12), m
        122    4.964E+01                                 F               0         Y-component position of node 41 (blade 2, node 12), m
        123    1.329E+02                                 F               0         Z-component position of node 41 (blade 2, node 12), m
        124    2.086E+01                                 F               0         X-component position of node 42 (blade 2, node 13), m
        125    5.335E+01                                 F               0         Y-component position of node 42 (blade 2, node 13), m
        126    1.318E+02                                 F               0         Z-component position of node 42 (blade 2, node 13), m
        127    2.056E+01                                 F               0         X-component position of node 43 (blade 2, node 14), m
        128    5.706E+01                                 F               0         Y-component position of node 43 (blade 2, node 14), m
        129    1.308E+02                                 F               0         Z-component position of node 43 (blade 2, node 14), m
        130    2.026E+01                                 F               0         X-component position of node 44 (blade 2, node 15), m
        131    6.077E+01                                 F               0         Y-component position of node 44 (blade 2, node 15), m
        132    1.297E+02                                 F               0         Z-component position of node 44 (blade 2, node 15), m
        133    1.995E+01                                 F               0         X-component position of node 45 (blade 2, node 16), m
        134    6.448E+01                                 F               0         Y-component position of node 45 (blade 2, node 16), m
        135    1.286E+02                                 F               0         Z-component position of node 45 (blade 2, node 16), m
        136    1.965E+01                                 F               0         X-component position of node 46 (blade 2, node 17), m
        137    6.819E+01                                 F               0         Y-component position of node 46 (blade 2, node 17), m
        138    1.276E+02                                 F               0         Z-component position of node 46 (blade 2, node 17), m
        139    1.935E+01                                 F               0         X-component position of node 47 (blade 2, node 18), m
        140    7.190E+01                                 F               0         Y-component position of node 47 (blade 2, node 18), m
        141    1.265E+02                                 F               0         Z-component position of node 47 (blade 2, node 18), m
        142    1.905E+01                                 F               0         X-component position of node 48 (blade 2, node 19), m
        143    7.561E+01                                 F               0         Y-component position of node 48 (blade 2, node 19), m
        144    1.255E+02                                 F               0         Z-component position of node 48 (blade 2, node 19), m
        145    1.875E+01                                 F               0         X-component position of node 49 (blade 2, node 20), m
        146    7.932E+01                                 F               0         Y-component position of node 49 (blade 2, node 20), m
        147    1.244E+02                                 F               0         Z-component position of node 49 (blade 2, node 20), m
        148    1.844E+01                                 F               0         X-component position of node 50 (blade 2, node 21), m
        149    8.303E+01                                 F               0         Y-component position of node 50 (blade 2, node 21), m
        150    1.234E+02                                 F               0         Z-component position of node 50 (blade 2, node 21), m
        151    1.814E+01                                 F               0         X-component position of node 51 (blade 2, node 22), m
        152    8.674E+01                                 F               0         Y-component position of node 51 (blade 2, node 22), m
        153    1.223E+02                                 F               0         Z-component position of node 51 (blade 2, node 22), m
        154    1.784E+01                                 F               0         X-component position of node 52 (blade 2, node 23), m
        155    9.045E+01                                 F               0         Y-component position of node 52 (blade 2, node 23), m
        156    1.213E+02                                 F               0         Z-component position of node 52 (blade 2, node 23), m
        157    1.754E+01                                 F               0         X-component position of node 53 (blade 2, node 24), m
        158    9.416E+01                                 F               0         Y-component position of node 53 (blade 2, node 24), m
        159    1.202E+02                                 F               0         Z-component position of node 53 (blade 2, node 24), m
        160    1.724E+01                                 F               0         X-component position of node 54 (blade 2, node 25), m
        161    9.787E+01                                 F               0         Y-component position of node 54 (blade 2, node 25), m
        162    1.192E+02                                 F               0         Z-component position of node 54 (blade 2, node 25), m
        163    1.693E+01                                 F               0         X-component position of node 55 (blade 2, node 26), m
        164    1.016E+02                                 F               0         Y-component position of node 55 (blade 2, node 26), m
        165    1.181E+02                                 F               0         Z-component position of node 55 (blade 2, node 26), m
        166    1.663E+01                                 F               0         X-component position of node 56 (blade 2, node 27), m
        167    1.053E+02                                 F               0         Y-component position of node 56 (blade 2, node 27), m
        168    1.171E+02                                 F               0         Z-component position of node 56 (blade 2, node 27), m
        169    1.638E+01                                 F               0         X-component position of node 57 (blade 2, node 28), m
        170    1.084E+02                                 F               0         Y-component position of node 57 (blade 2, node 28), m
        171    1.162E+02                                 F               0         Z-component position of node 57 (blade 2, node 28), m
        172    2.729E+01                                 F               0         X-component position of node 58 (blade 3, node 1), m
        173   -9.044E+00                                 F               0         Y-component position of node 58 (blade 3, node 1), m
        174    1.543E+02                                 F               0         Z-component position of node 58 (blade 3, node 1), m
        175    2.764E+01                                 F               0         X-component position of node 59 (blade 3, node 2), m
        176   -9.357E+00                                 F               0         Y-component position of node 59 (blade 3, node 2), m
        177    1.556E+02                                 F               0         Z-component position of node 59 (blade 3, node 2), m
        178    3.239E+01                                 F               0         X-component position of node 60 (blade 3, node 3), m
        179   -1.361E+01                                 F               0         Y-component position of node 60 (blade 3, node 3), m
        180    1.726E+02                                 F               0         Z-component position of node 60 (blade 3, node 3), m
        181    3.340E+01                                 F               0         X-component position of node 61 (blade 3, node 4), m
        182   -1.452E+01                                 F               0         Y-component position of node 61 (blade 3, node 4), m
        183    1.762E+02                                 F               0         Z-component position of node 61 (blade 3, node 4), m
        184    3.441E+01                                 F               0         X-component position of node 62 (blade 3, node 5), m
        185   -1.542E+01                                 F               0         Y-component position of node 62 (blade 3, node 5), m
        186    1.798E+02                                 F               0         Z-component position of node 62 (blade 3, node 5), m
        187    3.542E+01                                 F               0         X-component position of node 63 (blade 3, node 6), m
        188   -1.633E+01                                 F               0         Y-component position of node 63 (blade 3, node 6), m
        189    1.834E+02                                 F               0         Z-component position of node 63 (blade 3, node 6), m
        190    3.644E+01                                 F               0         X-component position of node 64 (blade 3, node 7), m
        191   -1.724E+01                                 F               0         Y-component position of node 64 (blade 3, node 7), m
        192    1.871E+02                                 F               0         Z-component position of node 64 (blade 3, node 7), m
        193    3.745E+01                                 F               0         X-component position of node 65 (blade 3, node 8), m
        194   -1.814E+01                                 F               0         Y-component position of node 65 (blade 3, node 8), m
        195    1.907E+02                                 F               0         Z-component position of node 65 (blade 3, node 8), m
        196    3.846E+01                                 F               0         X-component position of node 66 (blade 3, node 9), m
        197   -1.905E+01                                 F               0         Y-component position of node 66 (blade 3, node 9), m
        198    1.943E+02                                 F               0         Z-component position of node 66 (blade 3, node 9), m
        199    3.947E+01                                 F               0         X-component position of node 67 (blade 3, node 10), m
        200   -1.996E+01                                 F               0         Y-component position of node 67 (blade 3, node 10), m
        201    1.979E+02                                 F               0         Z-component position of node 67 (blade 3, node 10), m
        202    4.048E+01                                 F               0         X-component position of node 68 (blade 3, node 11), m
        203   -2.086E+01                                 F               0         Y-component position of node 68 (blade 3, node 11), m
        204    2.015E+02                                 F               0         Z-component position of node 68 (blade 3, node 11), m
        205    4.150E+01                                 F               0         X-component position of node 69 (blade 3, node 12), m
        206   -2.177E+01                                 F               0         Y-component position of node 69 (blade 3, node 12), m
        207    2.052E+02                                 F               0         Z-component position of node 69 (blade 3, node 12), m
        208    4.251E+01                                 F               0         X-component position of node 70 (blade 3, node 13), m
        209   -2.268E+01                                 F               0         Y-component position of node 70 (blade 3, node 13), m
        210    2.088E+02                                 F               0         Z-component position of node 70 (blade 3, node 13), m
        211    4.352E+01                                 F               0         X-component position of node 71 (blade 3, node 14), m