
Linearized model: Predictions were generated on 06-Feb-2024 at 16:18:08 using OpenFAST, compiled as a 64-bit application using single precision at commit v3.5.1
 linked with  NWTC Subroutine Library; ElastoDyn; InflowWind; AeroDyn; ServoDyn; HydroDyn; MAP++ (<1.20.10>, <Oct-20-2023>)

Description from the FAST input file: CCT-9 Campign 4 model. Input files to be run with OpenFAST 3.5.0. GitHub branch from Lu Wang (https://github.com/luwang00/openfast/tree/dev) compiled on March 7, 2023.

Simulation information:
   Simulation time:                  1000.0000 s
   Rotor Speed:                         1.0418 rad/s
   Azimuth:                             1.5005 rad
   Wind Speed:                         12.0000 m/s
   Number of continuous states:         0
   Number of discrete states:           0
   Number of constraint states:         0
   Number of inputs:                 1746
   Number of outputs:                   4
   Jacobians included in this file?    No

Order of inputs:
     Column   Operating Point                     Rotating Frame? Derivative Order Description
   ---------- ---------------                     --------------- ---------------- -----------
          1    1.513E+01                                 F               0         Tower X translation displacement, node 1, m
          2   -1.424E+00                                 F               0         Tower Y translation displacement, node 1, m
          3   -4.921E-01                                 F               0         Tower Z translation displacement, node 1, m
          4    1.704E+01                                 F               0         Tower X translation displacement, node 2, m
          5   -2.005E+00                                 F               0         Tower Y translation displacement, node 2, m
          6   -6.548E-01                                 F               0         Tower Z translation displacement, node 2, m
          7    1.899E+01                                 F               0         Tower X translation displacement, node 3, m
          8   -2.592E+00                                 F               0         Tower Y translation displacement, node 3, m
          9   -8.231E-01                                 F               0         Tower Z translation displacement, node 3, m
         10    2.096E+01                                 F               0         Tower X translation displacement, node 4, m
         11   -3.183E+00                                 F               0         Tower Y translation displacement, node 4, m
         12   -9.959E-01                                 F               0         Tower Z translation displacement, node 4, m
         13    2.296E+01                                 F               0         Tower X translation displacement, node 5, m
         14   -3.778E+00                                 F               0         Tower Y translation displacement, node 5, m
         15   -1.172E+00                                 F               0         Tower Z translation displacement, node 5, m
         16    2.497E+01                                 F               0         Tower X translation displacement, node 6, m
         17   -4.376E+00                                 F               0         Tower Y translation displacement, node 6, m
         18   -1.352E+00                                 F               0         Tower Z translation displacement, node 6, m
         19    2.699E+01                                 F               0         Tower X translation displacement, node 7, m
         20   -4.977E+00                                 F               0         Tower Y translation displacement, node 7, m
         21   -1.534E+00                                 F               0         Tower Z translation displacement, node 7, m
         22    2.903E+01                                 F               0         Tower X translation displacement, node 8, m
         23   -5.579E+00                                 F               0         Tower Y translation displacement, node 8, m
         24   -1.718E+00                                 F               0         Tower Z translation displacement, node 8, m
         25    3.108E+01                                 F               0         Tower X translation displacement, node 9, m
         26   -6.184E+00                                 F               0         Tower Y translation displacement, node 9, m
         27   -1.904E+00                                 F               0         Tower Z translation displacement, node 9, m
         28    3.313E+01                                 F               0         Tower X translation displacement, node 10, m
         29   -6.789E+00                                 F               0         Tower Y translation displacement, node 10, m
         30   -2.090E+00                                 F               0         Tower Z translation displacement, node 10, m
         31    3.518E+01                                 F               0         Tower X translation displacement, node 11, m
         32   -7.395E+00                                 F               0         Tower Y translation displacement, node 11, m
         33   -2.277E+00                                 F               0         Tower Z translation displacement, node 11, m
         34    9.881E-01, -3.533E-03, -1.540E-01         F               0         Tower X orientation angle, node 1, rad
         35    1.071E-02,  9.989E-01,  4.577E-02         F               0         Tower Y orientation angle, node 1, rad
         36    1.537E-01, -4.688E-02,  9.870E-01         F               0         Tower Z orientation angle, node 1, rad
         37    9.877E-01, -3.410E-03, -1.566E-01         F               0         Tower X orientation angle, node 2, rad
         38    1.077E-02,  9.989E-01,  4.618E-02         F               0         Tower Y orientation angle, node 2, rad
         39    1.563E-01, -4.729E-02,  9.866E-01         F               0         Tower Z orientation angle, node 2, rad
         40    9.873E-01, -3.299E-03, -1.589E-01         F               0         Tower X orientation angle, node 3, rad
         41    1.083E-02,  9.989E-01,  4.654E-02         F               0         Tower Y orientation angle, node 3, rad
         42    1.585E-01, -4.767E-02,  9.862E-01         F               0         Tower Z orientation angle, node 3, rad
         43    9.870E-01, -3.204E-03, -1.608E-01         F               0         Tower X orientation angle, node 4, rad
         44    1.088E-02,  9.988E-01,  4.686E-02         F               0         Tower Y orientation angle, node 4, rad
         45    1.605E-01, -4.800E-02,  9.859E-01         F               0         Tower Z orientation angle, node 4, rad
         46    9.867E-01, -3.124E-03, -1.625E-01         F               0         Tower X orientation angle, node 5, rad
         47    1.092E-02,  9.988E-01,  4.713E-02         F               0         Tower Y orientation angle, node 5, rad
         48    1.621E-01, -4.828E-02,  9.856E-01         F               0         Tower Z orientation angle, node 5, rad
         49    9.865E-01, -3.059E-03, -1.638E-01         F               0         Tower X orientation angle, node 6, rad
         50    1.096E-02,  9.988E-01,  4.736E-02         F               0         Tower Y orientation angle, node 6, rad
         51    1.635E-01, -4.851E-02,  9.854E-01         F               0         Tower Z orientation angle, node 6, rad
         52    9.863E-01, -3.009E-03, -1.648E-01         F               0         Tower X orientation angle, node 7, rad
         53    1.099E-02,  9.988E-01,  4.754E-02         F               0         Tower Y orientation angle, node 7, rad
         54    1.645E-01, -4.870E-02,  9.852E-01         F               0         Tower Z orientation angle, node 7, rad
         55    9.862E-01, -2.970E-03, -1.656E-01         F               0         Tower X orientation angle, node 8, rad
         56    1.101E-02,  9.988E-01,  4.768E-02         F               0         Tower Y orientation angle, node 8, rad
         57    1.652E-01, -4.885E-02,  9.850E-01         F               0         Tower Z orientation angle, node 8, rad
         58    9.861E-01, -2.944E-03, -1.661E-01         F               0         Tower X orientation angle, node 9, rad
         59    1.103E-02,  9.988E-01,  4.779E-02         F               0         Tower Y orientation angle, node 9, rad
         60    1.658E-01, -4.896E-02,  9.849E-01         F               0         Tower Z orientation angle, node 9, rad
         61    9.860E-01, -2.927E-03, -1.665E-01         F               0         Tower X orientation angle, node 10, rad
         62    1.104E-02,  9.988E-01,  4.785E-02         F               0         Tower Y orientation angle, node 10, rad
         63    1.661E-01, -4.903E-02,  9.849E-01         F               0         Tower Z orientation angle, node 10, rad
         64    9.860E-01, -2.918E-03, -1.666E-01         F               0         Tower X orientation angle, node 11, rad
         65    1.105E-02,  9.988E-01,  4.789E-02         F               0         Tower Y orientation angle, node 11, rad
         66    1.663E-01, -4.906E-02,  9.849E-01         F               0         Tower Z orientation angle, node 11, rad
         67    1.578E-04                                 F               0         Tower X translation velocity, node 1, m/s
         68    8.082E-04                                 F               0         Tower Y translation velocity, node 1, m/s
         69   -3.456E-03                                 F               0         Tower Z translation velocity, node 1, m/s
         70    1.535E-04                                 F               0         Tower X translation velocity, node 2, m/s
         71    1.336E-03                                 F               0         Tower Y translation velocity, node 2, m/s
         72   -3.430E-03                                 F               0         Tower Z translation velocity, node 2, m/s
         73    1.277E-04                                 F               0         Tower X translation velocity, node 3, m/s
         74    1.819E-03                                 F               0         Tower Y translation velocity, node 3, m/s
         75   -3.403E-03                                 F               0         Tower Z translation velocity, node 3, m/s
         76    8.596E-05                                 F               0         Tower X translation velocity, node 4, m/s
         77    2.263E-03                                 F               0         Tower Y translation velocity, node 4, m/s
         78   -3.374E-03                                 F               0         Tower Z translation velocity, node 4, m/s
         79    3.151E-05                                 F               0         Tower X translation velocity, node 5, m/s
         80    2.673E-03                                 F               0         Tower Y translation velocity, node 5, m/s
         81   -3.345E-03                                 F               0         Tower Z translation velocity, node 5, m/s
         82   -3.270E-05                                 F               0         Tower X translation velocity, node 6, m/s
         83    3.050E-03                                 F               0         Tower Y translation velocity, node 6, m/s
         84   -3.316E-03                                 F               0         Tower Z translation velocity, node 6, m/s
         85   -1.036E-04                                 F               0         Tower X translation velocity, node 7, m/s
         86    3.401E-03                                 F               0         Tower Y translation velocity, node 7, m/s
         87   -3.287E-03                                 F               0         Tower Z translation velocity, node 7, m/s
         88   -1.797E-04                                 F               0         Tower X translation velocity, node 8, m/s
         89    3.727E-03                                 F               0         Tower Y translation velocity, node 8, m/s
         90   -3.258E-03                                 F               0         Tower Z translation velocity, node 8, m/s
         91   -2.591E-04                                 F               0         Tower X translation velocity, node 9, m/s
         92    4.033E-03                                 F               0         Tower Y translation velocity, node 9, m/s
         93   -3.230E-03                                 F               0         Tower Z translation velocity, node 9, m/s
         94   -3.405E-04                                 F               0         Tower X translation velocity, node 10, m/s
         95    4.324E-03                                 F               0         Tower Y translation velocity, node 10, m/s
         96   -3.202E-03                                 F               0         Tower Z translation velocity, node 10, m/s
         97   -4.226E-04                                 F               0         Tower X translation velocity, node 11, m/s
         98    4.606E-03                                 F               0         Tower Y translation velocity, node 11, m/s
         99   -3.174E-03                                 F               0         Tower Z translation velocity, node 11, m/s
        100    3.664E+01                                 F               0         Hub X translation displacement, node 1, m
        101   -7.749E+00                                 F               0         Hub Y translation displacement, node 1, m
        102   -5.962E-01                                 F               0         Hub Z translation displacement, node 1, m
        103    9.632E-01,  2.227E-03, -2.687E-01         F               0         Hub X orientation angle, node 1, rad
        104    2.686E-01,  2.122E-02,  9.630E-01         F               0         Hub Y orientation angle, node 1, rad
        105    7.845E-03, -9.998E-01,  1.984E-02         F               0         Hub Z orientation angle, node 1, rad
        106    1.004E+00                                 F               0         Hub X rotation velocity, node 1, rad/s
        107    2.313E-03                                 F               0         Hub Y rotation velocity, node 1, rad/s
        108   -2.799E-01                                 F               0         Hub Z rotation velocity, node 1, rad/s
        109    9.548E-01,  1.596E-03, -2.971E-01         F               0         Blade root 1 X orientation angle, node 1, rad
        110    2.970E-01,  2.128E-02,  9.546E-01         F               0         Blade root 1 Y orientation angle, node 1, rad
        111    7.845E-03, -9.998E-01,  1.984E-02         F               0         Blade root 1 Z orientation angle, node 1, rad
        112    9.666E-01,  2.823E-02, -2.548E-01         F               0         Blade root 2 X orientation angle, node 1, rad
        113   -9.886E-02, -8.760E-01, -4.721E-01         F               0         Blade root 2 Y orientation angle, node 1, rad
        114   -2.365E-01,  4.815E-01, -8.439E-01         F               0         Blade root 2 Z orientation angle, node 1, rad
        115    9.670E-01, -2.315E-02, -2.538E-01         F               0         Blade root 3 X orientation angle, node 1, rad
        116   -1.124E-01,  8.549E-01, -5.064E-01         F               0         Blade root 3 Y orientation angle, node 1, rad
        117    2.287E-01,  5.183E-01,  8.241E-01         F               0         Blade root 3 Z orientation angle, node 1, rad
        118    3.610E+01                                 F               0         Blade 1 X translation displacement, node 1, m
        119   -1.329E+01                                 F               0         Blade 1 Y translation displacement, node 1, m
        120   -5.996E+00                                 F               0         Blade 1 Z translation displacement, node 1, m
        121    3.597E+01                                 F               0         Blade 1 X translation displacement, node 2, m
        122   -1.462E+01                                 F               0         Blade 1 Y translation displacement, node 2, m
        123   -7.297E+00                                 F               0         Blade 1 Z translation displacement, node 2, m
        124    3.422E+01                                 F               0         Blade 1 X translation displacement, node 3, m
        125   -3.277E+01                                 F               0         Blade 1 Y translation displacement, node 3, m
        126   -2.499E+01                                 F               0         Blade 1 Z translation displacement, node 3, m
        127    3.384E+01                                 F               0         Blade 1 X translation displacement, node 4, m
        128   -3.664E+01                                 F               0         Blade 1 Y translation displacement, node 4, m
        129   -2.876E+01                                 F               0         Blade 1 Z translation displacement, node 4, m
        130    3.347E+01                                 F               0         Blade 1 X translation displacement, node 5, m
        131   -4.050E+01                                 F               0         Blade 1 Y translation displacement, node 5, m
        132   -3.253E+01                                 F               0         Blade 1 Z translation displacement, node 5, m
        133    3.310E+01                                 F               0         Blade 1 X translation displacement, node 6, m
        134   -4.437E+01                                 F               0         Blade 1 Y translation displacement, node 6, m
        135   -3.630E+01                                 F               0         Blade 1 Z translation displacement, node 6, m
        136    3.272E+01                                 F               0         Blade 1 X translation displacement, node 7, m
        137   -4.824E+01                                 F               0         Blade 1 Y translation displacement, node 7, m
        138   -4.007E+01                                 F               0         Blade 1 Z translation displacement, node 7, m
        139    3.235E+01                                 F               0         Blade 1 X translation displacement, node 8, m
        140   -5.210E+01                                 F               0         Blade 1 Y translation displacement, node 8, m
        141   -4.384E+01                                 F               0         Blade 1 Z translation displacement, node 8, m
        142    3.197E+01                                 F               0         Blade 1 X translation displacement, node 9, m
        143   -5.597E+01                                 F               0         Blade 1 Y translation displacement, node 9, m
        144   -4.761E+01                                 F               0         Blade 1 Z translation displacement, node 9, m
        145    3.160E+01                                 F               0         Blade 1 X translation displacement, node 10, m
        146   -5.984E+01                                 F               0         Blade 1 Y translation displacement, node 10, m
        147   -5.138E+01                                 F               0         Blade 1 Z translation displacement, node 10, m
        148    3.123E+01                                 F               0         Blade 1 X translation displacement, node 11, m
        149   -6.370E+01                                 F               0         Blade 1 Y translation displacement, node 11, m
        150   -5.515E+01                                 F               0         Blade 1 Z translation displacement, node 11, m
        151    3.085E+01                                 F               0         Blade 1 X translation displacement, node 12, m
        152   -6.757E+01                                 F               0         Blade 1 Y translation displacement, node 12, m
        153   -5.892E+01                                 F               0         Blade 1 Z translation displacement, node 12, m
        154    3.048E+01                                 F               0         Blade 1 X translation displacement, node 13, m
        155   -7.144E+01                                 F               0         Blade 1 Y translation displacement, node 13, m
        156   -6.269E+01                                 F               0         Blade 1 Z translation displacement, node 13, m
        157    3.010E+01                                 F               0         Blade 1 X translation displacement, node 14, m
        158   -7.531E+01                                 F               0         Blade 1 Y translation displacement, node 14, m
        159   -6.646E+01                                 F               0         Blade 1 Z translation displacement, node 14, m
        160    2.973E+01                                 F               0         Blade 1 X translation displacement, node 15, m
        161   -7.917E+01                                 F               0         Blade 1 Y translation displacement, node 15, m
        162   -7.023E+01                                 F               0         Blade 1 Z translation displacement, node 15, m
        163    2.936E+01                                 F               0         Blade 1 X translation displacement, node 16, m
        164   -8.304E+01                                 F               0         Blade 1 Y translation displacement, node 16, m
        165   -7.400E+01                                 F               0         Blade 1 Z translation displacement, node 16, m
        166    2.898E+01                                 F               0         Blade 1 X translation displacement, node 17, m
        167   -8.691E+01                                 F               0         Blade 1 Y translation displacement, node 17, m
        168   -7.777E+01                                 F               0         Blade 1 Z translation displacement, node 17, m
        169    2.861E+01                                 F               0         Blade 1 X translation displacement, node 18, m
        170   -9.077E+01                                 F               0         Blade 1 Y translation displacement, node 18, m
        171   -8.154E+01                                 F               0         Blade 1 Z translation displacement, node 18, m
        172    2.823E+01                                 F               0         Blade 1 X translation displacement, node 19, m
        173   -9.464E+01                                 F               0         Blade 1 Y translation displacement, node 19, m
        174   -8.531E+01                                 F               0         Blade 1 Z translation displacement, node 19, m
        175    2.786E+01                                 F               0         Blade 1 X translation displacement, node 20, m
        176   -9.851E+01                                 F               0         Blade 1 Y translation displacement, node 20, m
        177   -8.908E+01                                 F               0         Blade 1 Z translation displacement, node 20, m
        178    2.749E+01                                 F               0         Blade 1 X translation displacement, node 21, m
        179   -1.024E+02                                 F               0         Blade 1 Y translation displacement, node 21, m
        180   -9.285E+01                                 F               0         Blade 1 Z translation displacement, node 21, m
        181    2.711E+01                                 F               0         Blade 1 X translation displacement, node 22, m
        182   -1.062E+02                                 F               0         Blade 1 Y translation displacement, node 22, m
        183   -9.662E+01                                 F               0         Blade 1 Z translation displacement, node 22, m
        184    2.674E+01                                 F               0         Blade 1 X translation displacement, node 23, m
        185   -1.101E+02                                 F               0         Blade 1 Y translation displacement, node 23, m
        186   -1.004E+02                                 F               0         Blade 1 Z translation displacement, node 23, m
        187    2.636E+01                                 F               0         Blade 1 X translation displacement, node 24, m
        188   -1.140E+02                                 F               0         Blade 1 Y translation displacement, node 24, m
        189   -1.042E+02                                 F               0         Blade 1 Z translation displacement, node 24, m
        190    2.599E+01                                 F               0         Blade 1 X translation displacement, node 25, m
        191   -1.178E+02                                 F               0         Blade 1 Y translation displacement, node 25, m
        192   -1.079E+02                                 F               0         Blade 1 Z translation displacement, node 25, m
        193    2.562E+01                                 F               0         Blade 1 X translation displacement, node 26, m
        194   -1.217E+02                                 F               0         Blade 1 Y translation displacement, node 26, m
        195   -1.117E+02                                 F               0         Blade 1 Z translation displacement, node 26, m
        196    2.524E+01                                 F               0         Blade 1 X translation displacement, node 27, m
        197   -1.256E+02                                 F               0         Blade 1 Y translation displacement, node 27, m
        198   -1.155E+02                                 F               0         Blade 1 Z translation displacement, node 27, m
        199    2.493E+01                                 F               0         Blade 1 X translation displacement, node 28, m
        200   -1.289E+02                                 F               0         Blade 1 Y translation displacement, node 28, m
        201   -1.187E+02                                 F               0         Blade 1 Z translation displacement, node 28, m
        202    7.143E-01, -8.281E-03, -6.998E-01         F               0         Blade 1 X orientation angle, node 1, rad
        203    6.998E-01,  1.966E-02,  7.141E-01         F               0         Blade 1 Y orientation angle, node 1, rad
        204    7.845E-03, -9.998E-01,  1.984E-02         F               0         Blade 1 Z orientation angle, node 1, rad
        205    7.143E-01, -8.281E-03, -6.998E-01         F               0         Blade 1 X orientation angle, node 2, rad
        206    6.998E-01,  1.966E-02,  7.141E-01         F               0         Blade 1 Y orientation angle, node 2, rad
        207    7.845E-03, -9.998E-01,  1.984E-02         F               0         Blade 1 Z orientation angle, node 2, rad
        208    8.598E-01, -3.385E-03, -5.106E-01         F               0         Blade 1 X orientation angle, node 3, rad
        209    5.105E-01,  2.106E-02,  8.596E-01         F               0         Blade 1 Y orientation angle, node 3, rad
        210    7.845E-03, -9.998E-01,  1.984E-02         F               0         Blade 1 Z orientation angle, node 3, rad
        211    8.806E-01, -2.492E-03, -4.738E-01         F               0         Blade 1 X orientation angle, node 4, rad
        212    4.738E-01,  2.119E-02,  8.804E-01         F               0         Blade 1 Y orientation angle, node 4, rad
        213    7.845E-03, -9.998E-01,  1.984E-02         F               0         Blade 1 Z orientation angle, node 4, rad
        214    8.958E-01, -1.789E-03, -4.444E-01         F               0         Blade 1 X orientation angle, node 5, rad
        215    4.443E-01,  2.126E-02,  8.956E-01         F               0         Blade 1 Y orientation angle, node 5, rad
        216    7.845E-03, -9.998E-01,  1.984E-02         F               0         Blade 1 Z orientation angle, node 5, rad
        217    9.073E-01, -1.224E-03, -4.205E-01         F               0         Blade 1 X orientation angle, node 6, rad
        218    4.204E-01,  2.130E-02,  9.071E-01         F               0         Blade 1 Y orientation angle, node 6, rad
        219    7.845E-03, -9.998E-01,  1.984E-02         F               0         Blade 1 Z orientation angle, node 6, rad
        220    9.163E-01, -7.591E-04, -4.006E-01         F               0         Blade 1 X orientation angle, node 7, rad
        221    4.005E-01,  2.132E-02,  9.161E-01         F               0         Blade 1 Y orientation angle, node 7, rad
        222    7.845E-03, -9.998E-01,  1.984E-02         F               0         Blade 1 Z orientation angle, node 7, rad
        223    9.234E-01, -3.720E-04, -3.839E-01         F               0         Blade 1 X orientation angle, node 8, rad
        224    3.838E-01,  2.133E-02,  9.232E-01         F               0         Blade 1 Y orientation angle, node 8, rad
        225    7.845E-03, -9.998E-01,  1.984E-02         F               0         Blade 1 Z orientation angle, node 8, rad
        226    9.292E-01, -4.432E-05, -3.696E-01         F               0         Blade 1 X orientation angle, node 9, rad
        227    3.696E-01,  2.133E-02,  9.290E-01         F               0         Blade 1 Y orientation angle, node 9, rad