
Linearized model: Predictions were generated on 06-Feb-2024 at 16:18:08 using OpenFAST, compiled as a 64-bit application using single precision at commit v3.5.1
 linked with  NWTC Subroutine Library; ElastoDyn; InflowWind; AeroDyn; ServoDyn; HydroDyn; MAP++ (<1.20.10>, <Oct-20-2023>)

Description from the FAST input file: CCT-9 Campign 4 model. Input files to be run with OpenFAST 3.5.0. GitHub branch from Lu Wang (https://github.com/luwang00/openfast/tree/dev) compiled on March 7, 2023.

Simulation information:
   Simulation time:                  1006.4750 s
   Rotor Speed:                         1.0419 rad/s
   Azimuth:                             1.9640 rad
   Wind Speed:                         12.0000 m/s
   Number of continuous states:        18
   Number of discrete states:           0
   Number of constraint states:         0
   Number of inputs:                 3988
   Number of outputs:                  36
   Jacobians included in this file?    No

Order of continuous states:
   Row/Column Operating Point                     Rotating Frame? Derivative Order Description
   ---------- ---------------                     --------------- ---------------- -----------
          1    1.231E+01                                 F               2         ED Platform horizontal surge translation DOF (internal DOF index = DOF_Sg), m
          2   -2.487E-01                                 F               2         ED Platform vertical heave translation DOF (internal DOF index = DOF_Hv), m
          3    4.691E-02                                 F               2         ED Platform roll tilt rotation DOF (internal DOF index = DOF_R), rad
          4    1.559E-01                                 F               2         ED Platform pitch tilt rotation DOF (internal DOF index = DOF_P), rad
          5    1.080E+00                                 F               2         ED 1st tower fore-aft bending mode DOF (internal DOF index = DOF_TFA1), m
          6    1.770E-01                                 F               2         ED 1st tower side-to-side bending mode DOF (internal DOF index = DOF_TSS1), m
          7    1.603E-03                                 F               2         ED 2nd tower fore-aft bending mode DOF (internal DOF index = DOF_TFA2), m
          8    7.612E-05                                 F               2         ED 2nd tower side-to-side bending mode DOF (internal DOF index = DOF_TSS2), m
          9    3.932E-01                                 F               2         ED Variable speed generator DOF (internal DOF index = DOF_GeAz), rad
         10    1.649E-04                                 F               2         ED First time derivative of Platform horizontal surge translation DOF (internal DOF index = DOF_Sg), m/s
         11    4.833E-03                                 F               2         ED First time derivative of Platform vertical heave translation DOF (internal DOF index = DOF_Hv), m/s
         12   -2.797E-05                                 F               2         ED First time derivative of Platform roll tilt rotation DOF (internal DOF index = DOF_R), rad/s
         13    7.755E-06                                 F               2         ED First time derivative of Platform pitch tilt rotation DOF (internal DOF index = DOF_P), rad/s
         14    1.390E-03                                 F               2         ED First time derivative of 1st tower fore-aft bending mode DOF (internal DOF index = DOF_TFA1), m/s
         15    1.201E-03                                 F               2         ED First time derivative of 1st tower side-to-side bending mode DOF (internal DOF index = DOF_TSS1), m/s
         16    1.247E-05                                 F               2         ED First time derivative of 2nd tower fore-aft bending mode DOF (internal DOF index = DOF_TFA2), m/s
         17   -2.125E-06                                 F               2         ED First time derivative of 2nd tower side-to-side bending mode DOF (internal DOF index = DOF_TSS2), m/s
         18    1.042E+00                                 F               2         ED First time derivative of Variable speed generator DOF (internal DOF index = DOF_GeAz), rad/s

Order of continuous state derivatives:
   Row/Column Operating Point                     Rotating Frame? Derivative Order Description
   ---------- ---------------                     --------------- ---------------- -----------
          1    1.649E-04                                 F               2         First time derivative of ED Platform horizontal surge translation DOF (internal DOF index = DOF_Sg), m/s
          2    4.833E-03                                 F               2         First time derivative of ED Platform vertical heave translation DOF (internal DOF index = DOF_Hv), m/s
          3   -2.797E-05                                 F               2         First time derivative of ED Platform roll tilt rotation DOF (internal DOF index = DOF_R), rad/s
          4    7.755E-06                                 F               2         First time derivative of ED Platform pitch tilt rotation DOF (internal DOF index = DOF_P), rad/s
          5    1.390E-03                                 F               2         First time derivative of ED 1st tower fore-aft bending mode DOF (internal DOF index = DOF_TFA1), m/s
          6    1.201E-03                                 F               2         First time derivative of ED 1st tower side-to-side bending mode DOF (internal DOF index = DOF_TSS1), m/s
          7    1.247E-05                                 F               2         First time derivative of ED 2nd tower fore-aft bending mode DOF (internal DOF index = DOF_TFA2), m/s
          8   -2.125E-06                                 F               2         First time derivative of ED 2nd tower side-to-side bending mode DOF (internal DOF index = DOF_TSS2), m/s
          9    1.042E+00                                 F               2         First time derivative of ED Variable speed generator DOF (internal DOF index = DOF_GeAz), rad/s
         10   -4.283E-05                                 F               2         First time derivative of ED First time derivative of Platform horizontal surge translation DOF (internal DOF index = DOF_Sg), m/s/s
         11    7.679E-04                                 F               2         First time derivative of ED First time derivative of Platform vertical heave translation DOF (internal DOF index = DOF_Hv), m/s/s
         12    3.428E-05                                 F               2         First time derivative of ED First time derivative of Platform roll tilt rotation DOF (internal DOF index = DOF_R), rad/s/s
         13   -1.813E-06                                 F               2         First time derivative of ED First time derivative of Platform pitch tilt rotation DOF (internal DOF index = DOF_P), rad/s/s
         14    1.794E-03                                 F               2         First time derivative of ED First time derivative of 1st tower fore-aft bending mode DOF (internal DOF index = DOF_TFA1), m/s/s
         15   -9.175E-04                                 F               2         First time derivative of ED First time derivative of 1st tower side-to-side bending mode DOF (internal DOF index = DOF_TSS1), m/s/s
         16    2.154E-05                                 F               2         First time derivative of ED First time derivative of 2nd tower fore-aft bending mode DOF (internal DOF index = DOF_TFA2), m/s/s
         17    8.971E-06                                 F               2         First time derivative of ED First time derivative of 2nd tower side-to-side bending mode DOF (internal DOF index = DOF_TSS2), m/s/s
         18    1.136E-04                                 F               2         First time derivative of ED First time derivative of Variable speed generator DOF (internal DOF index = DOF_GeAz), rad/s/s

Order of inputs:
     Column   Operating Point                     Rotating Frame? Derivative Order Description
   ---------- ---------------                     --------------- ---------------- -----------
          1   -1.080E+01                                 F               0         IfW X-component position of node 1 (hub), m
          2    0.000E+00                                 F               0         IfW Y-component position of node 1 (hub), m
          3    1.497E+02                                 F               0         IfW Z-component position of node 1 (hub), m
          4    2.521E+01                                 F               0         IfW X-component position of node 2 (blade 1, node 1), m
          5   -1.275E+01                                 F               0         IfW Y-component position of node 2 (blade 1, node 1), m
          6    1.469E+02                                 F               0         IfW Z-component position of node 2 (blade 1, node 1), m
          7    2.506E+01                                 F               0         IfW X-component position of node 3 (blade 1, node 2), m
          8   -1.396E+01                                 F               0         IfW Y-component position of node 3 (blade 1, node 2), m
          9    1.463E+02                                 F               0         IfW Z-component position of node 3 (blade 1, node 2), m
         10    2.301E+01                                 F               0         IfW X-component position of node 4 (blade 1, node 3), m
         11   -3.036E+01                                 F               0         IfW Y-component position of node 4 (blade 1, node 3), m
         12    1.388E+02                                 F               0         IfW Z-component position of node 4 (blade 1, node 3), m
         13    2.257E+01                                 F               0         IfW X-component position of node 5 (blade 1, node 4), m
         14   -3.386E+01                                 F               0         IfW Y-component position of node 5 (blade 1, node 4), m
         15    1.372E+02                                 F               0         IfW Z-component position of node 5 (blade 1, node 4), m
         16    2.213E+01                                 F               0         IfW X-component position of node 6 (blade 1, node 5), m
         17   -3.736E+01                                 F               0         IfW Y-component position of node 6 (blade 1, node 5), m
         18    1.356E+02                                 F               0         IfW Z-component position of node 6 (blade 1, node 5), m
         19    2.170E+01                                 F               0         IfW X-component position of node 7 (blade 1, node 6), m
         20   -4.085E+01                                 F               0         IfW Y-component position of node 7 (blade 1, node 6), m
         21    1.340E+02                                 F               0         IfW Z-component position of node 7 (blade 1, node 6), m
         22    2.126E+01                                 F               0         IfW X-component position of node 8 (blade 1, node 7), m
         23   -4.435E+01                                 F               0         IfW Y-component position of node 8 (blade 1, node 7), m
         24    1.324E+02                                 F               0         IfW Z-component position of node 8 (blade 1, node 7), m
         25    2.082E+01                                 F               0         IfW X-component position of node 9 (blade 1, node 8), m
         26   -4.784E+01                                 F               0         IfW Y-component position of node 9 (blade 1, node 8), m
         27    1.308E+02                                 F               0         IfW Z-component position of node 9 (blade 1, node 8), m
         28    2.038E+01                                 F               0         IfW X-component position of node 10 (blade 1, node 9), m
         29   -5.134E+01                                 F               0         IfW Y-component position of node 10 (blade 1, node 9), m
         30    1.292E+02                                 F               0         IfW Z-component position of node 10 (blade 1, node 9), m
         31    1.995E+01                                 F               0         IfW X-component position of node 11 (blade 1, node 10), m
         32   -5.483E+01                                 F               0         IfW Y-component position of node 11 (blade 1, node 10), m
         33    1.276E+02                                 F               0         IfW Z-component position of node 11 (blade 1, node 10), m
         34    1.951E+01                                 F               0         IfW X-component position of node 12 (blade 1, node 11), m
         35   -5.833E+01                                 F               0         IfW Y-component position of node 12 (blade 1, node 11), m
         36    1.260E+02                                 F               0         IfW Z-component position of node 12 (blade 1, node 11), m
         37    1.907E+01                                 F               0         IfW X-component position of node 13 (blade 1, node 12), m
         38   -6.183E+01                                 F               0         IfW Y-component position of node 13 (blade 1, node 12), m
         39    1.244E+02                                 F               0         IfW Z-component position of node 13 (blade 1, node 12), m
         40    1.864E+01                                 F               0         IfW X-component position of node 14 (blade 1, node 13), m
         41   -6.532E+01                                 F               0         IfW Y-component position of node 14 (blade 1, node 13), m
         42    1.229E+02                                 F               0         IfW Z-component position of node 14 (blade 1, node 13), m
         43    1.820E+01                                 F               0         IfW X-component position of node 15 (blade 1, node 14), m
         44   -6.882E+01                                 F               0         IfW Y-component position of node 15 (blade 1, node 14), m
         45    1.213E+02                                 F               0         IfW Z-component position of node 15 (blade 1, node 14), m
         46    1.776E+01                                 F               0         IfW X-component position of node 16 (blade 1, node 15), m
         47   -7.231E+01                                 F               0         IfW Y-component position of node 16 (blade 1, node 15), m
         48    1.197E+02                                 F               0         IfW Z-component position of node 16 (blade 1, node 15), m
         49    1.732E+01                                 F               0         IfW X-component position of node 17 (blade 1, node 16), m
         50   -7.581E+01                                 F               0         IfW Y-component position of node 17 (blade 1, node 16), m
         51    1.181E+02                                 F               0         IfW Z-component position of node 17 (blade 1, node 16), m
         52    1.689E+01                                 F               0         IfW X-component position of node 18 (blade 1, node 17), m
         53   -7.930E+01                                 F               0         IfW Y-component position of node 18 (blade 1, node 17), m
         54    1.165E+02                                 F               0         IfW Z-component position of node 18 (blade 1, node 17), m
         55    1.645E+01                                 F               0         IfW X-component position of node 19 (blade 1, node 18), m
         56   -8.280E+01                                 F               0         IfW Y-component position of node 19 (blade 1, node 18), m
         57    1.149E+02                                 F               0         IfW Z-component position of node 19 (blade 1, node 18), m
         58    1.601E+01                                 F               0         IfW X-component position of node 20 (blade 1, node 19), m
         59   -8.629E+01                                 F               0         IfW Y-component position of node 20 (blade 1, node 19), m
         60    1.133E+02                                 F               0         IfW Z-component position of node 20 (blade 1, node 19), m
         61    1.558E+01                                 F               0         IfW X-component position of node 21 (blade 1, node 20), m
         62   -8.979E+01                                 F               0         IfW Y-component position of node 21 (blade 1, node 20), m
         63    1.117E+02                                 F               0         IfW Z-component position of node 21 (blade 1, node 20), m
         64    1.514E+01                                 F               0         IfW X-component position of node 22 (blade 1, node 21), m
         65   -9.328E+01                                 F               0         IfW Y-component position of node 22 (blade 1, node 21), m
         66    1.101E+02                                 F               0         IfW Z-component position of node 22 (blade 1, node 21), m
         67    1.470E+01                                 F               0         IfW X-component position of node 23 (blade 1, node 22), m
         68   -9.678E+01                                 F               0         IfW Y-component position of node 23 (blade 1, node 22), m
         69    1.085E+02                                 F               0         IfW Z-component position of node 23 (blade 1, node 22), m
         70    1.426E+01                                 F               0         IfW X-component position of node 24 (blade 1, node 23), m
         71   -1.003E+02                                 F               0         IfW Y-component position of node 24 (blade 1, node 23), m
         72    1.069E+02                                 F               0         IfW Z-component position of node 24 (blade 1, node 23), m
         73    1.383E+01                                 F               0         IfW X-component position of node 25 (blade 1, node 24), m
         74   -1.038E+02                                 F               0         IfW Y-component position of node 25 (blade 1, node 24), m
         75    1.053E+02                                 F               0         IfW Z-component position of node 25 (blade 1, node 24), m
         76    1.339E+01                                 F               0         IfW X-component position of node 26 (blade 1, node 25), m
         77   -1.073E+02                                 F               0         IfW Y-component position of node 26 (blade 1, node 25), m
         78    1.037E+02                                 F               0         IfW Z-component position of node 26 (blade 1, node 25), m
         79    1.295E+01                                 F               0         IfW X-component position of node 27 (blade 1, node 26), m
         80   -1.108E+02                                 F               0         IfW Y-component position of node 27 (blade 1, node 26), m
         81    1.021E+02                                 F               0         IfW Z-component position of node 27 (blade 1, node 26), m
         82    1.251E+01                                 F               0         IfW X-component position of node 28 (blade 1, node 27), m
         83   -1.143E+02                                 F               0         IfW Y-component position of node 28 (blade 1, node 27), m
         84    1.005E+02                                 F               0         IfW Z-component position of node 28 (blade 1, node 27), m
         85    1.214E+01                                 F               0         IfW X-component position of node 29 (blade 1, node 28), m
         86   -1.172E+02                                 F               0         IfW Y-component position of node 29 (blade 1, node 28), m
         87    9.915E+01                                 F               0         IfW Z-component position of node 29 (blade 1, node 28), m
         88    2.498E+01                                 F               0         IfW X-component position of node 30 (blade 2, node 1), m
         89   -3.189E+00                                 F               0         IfW Y-component position of node 30 (blade 2, node 1), m
         90    1.461E+02                                 F               0         IfW Z-component position of node 30 (blade 2, node 1), m
         91    2.478E+01                                 F               0         IfW X-component position of node 31 (blade 2, node 2), m
         92   -2.091E+00                                 F               0         IfW Y-component position of node 31 (blade 2, node 2), m
         93    1.454E+02                                 F               0         IfW Z-component position of node 31 (blade 2, node 2), m
         94    2.197E+01                                 F               0         IfW X-component position of node 32 (blade 2, node 3), m
         95    1.284E+01                                 F               0         IfW Y-component position of node 32 (blade 2, node 3), m
         96    1.355E+02                                 F               0         IfW Z-component position of node 32 (blade 2, node 3), m
         97    2.137E+01                                 F               0         IfW X-component position of node 33 (blade 2, node 4), m
         98    1.602E+01                                 F               0         IfW Y-component position of node 33 (blade 2, node 4), m
         99    1.333E+02                                 F               0         IfW Z-component position of node 33 (blade 2, node 4), m
        100    2.077E+01                                 F               0         IfW X-component position of node 34 (blade 2, node 5), m
        101    1.920E+01                                 F               0         IfW Y-component position of node 34 (blade 2, node 5), m
        102    1.312E+02                                 F               0         IfW Z-component position of node 34 (blade 2, node 5), m
        103    2.018E+01                                 F               0         IfW X-component position of node 35 (blade 2, node 6), m
        104    2.238E+01                                 F               0         IfW Y-component position of node 35 (blade 2, node 6), m
        105    1.291E+02                                 F               0         IfW Z-component position of node 35 (blade 2, node 6), m
        106    1.958E+01                                 F               0         IfW X-component position of node 36 (blade 2, node 7), m
        107    2.557E+01                                 F               0         IfW Y-component position of node 36 (blade 2, node 7), m
        108    1.270E+02                                 F               0         IfW Z-component position of node 36 (blade 2, node 7), m
        109    1.898E+01                                 F               0         IfW X-component position of node 37 (blade 2, node 8), m
        110    2.875E+01                                 F               0         IfW Y-component position of node 37 (blade 2, node 8), m
        111    1.249E+02                                 F               0         IfW Z-component position of node 37 (blade 2, node 8), m
        112    1.838E+01                                 F               0         IfW X-component position of node 38 (blade 2, node 9), m
        113    3.193E+01                                 F               0         IfW Y-component position of node 38 (blade 2, node 9), m
        114    1.228E+02                                 F               0         IfW Z-component position of node 38 (blade 2, node 9), m
        115    1.779E+01                                 F               0         IfW X-component position of node 39 (blade 2, node 10), m
        116    3.511E+01                                 F               0         IfW Y-component position of node 39 (blade 2, node 10), m
        117    1.206E+02                                 F               0         IfW Z-component position of node 39 (blade 2, node 10), m
        118    1.719E+01                                 F               0         IfW X-component position of node 40 (blade 2, node 11), m
        119    3.829E+01                                 F               0         IfW Y-component position of node 40 (blade 2, node 11), m
        120    1.185E+02                                 F               0         IfW Z-component position of node 40 (blade 2, node 11), m
        121    1.659E+01                                 F               0         IfW X-component position of node 41 (blade 2, node 12), m
        122    4.147E+01                                 F               0         IfW Y-component position of node 41 (blade 2, node 12), m
        123    1.164E+02                                 F               0         IfW Z-component position of node 41 (blade 2, node 12), m
        124    1.599E+01                                 F               0         IfW X-component position of node 42 (blade 2, node 13), m
        125    4.465E+01                                 F               0         IfW Y-component position of node 42 (blade 2, node 13), m
        126    1.143E+02                                 F               0         IfW Z-component position of node 42 (blade 2, node 13), m
        127    1.539E+01                                 F               0         IfW X-component position of node 43 (blade 2, node 14), m
        128    4.783E+01                                 F               0         IfW Y-component position of node 43 (blade 2, node 14), m
        129    1.122E+02                                 F               0         IfW Z-component position of node 43 (blade 2, node 14), m
        130    1.480E+01                                 F               0         IfW X-component position of node 44 (blade 2, node 15), m
        131    5.102E+01                                 F               0         IfW Y-component position of node 44 (blade 2, node 15), m
        132    1.100E+02                                 F               0         IfW Z-component position of node 44 (blade 2, node 15), m
        133    1.420E+01                                 F               0         IfW X-component position of node 45 (blade 2, node 16), m
        134    5.420E+01                                 F               0         IfW Y-component position of node 45 (blade 2, node 16), m
        135    1.079E+02                                 F               0         IfW Z-component position of node 45 (blade 2, node 16), m
        136    1.360E+01                                 F               0         IfW X-component position of node 46 (blade 2, node 17), m
        137    5.738E+01                                 F               0         IfW Y-component position of node 46 (blade 2, node 17), m
        138    1.058E+02                                 F               0         IfW Z-component position of node 46 (blade 2, node 17), m
        139    1.300E+01                                 F               0         IfW X-component position of node 47 (blade 2, node 18), m
        140    6.056E+01                                 F               0         IfW Y-component position of node 47 (blade 2, node 18), m
        141    1.037E+02                                 F               0         IfW Z-component position of node 47 (blade 2, node 18), m
        142    1.240E+01                                 F               0         IfW X-component position of node 48 (blade 2, node 19), m
        143    6.374E+01                                 F               0         IfW Y-component position of node 48 (blade 2, node 19), m
        144    1.016E+02                                 F               0         IfW Z-component position of node 48 (blade 2, node 19), m
        145    1.181E+01                                 F               0         IfW X-component position of node 49 (blade 2, node 20), m
        146    6.692E+01                                 F               0         IfW Y-component position of node 49 (blade 2, node 20), m
        147    9.947E+01                                 F               0         IfW Z-component position of node 49 (blade 2, node 20), m
        148    1.121E+01                                 F               0         IfW X-component position of node 50 (blade 2, node 21), m
        149    7.010E+01                                 F               0         IfW Y-component position of node 50 (blade 2, node 21), m
        150    9.735E+01                                 F               0         IfW Z-component position of node 50 (blade 2, node 21), m
        151    1.061E+01                                 F               0         IfW X-component position of node 51 (blade 2, node 22), m
        152    7.329E+01                                 F               0         IfW Y-component position of node 51 (blade 2, node 22), m
        153    9.523E+01                                 F               0         IfW Z-component position of node 51 (blade 2, node 22), m
        154    1.001E+01                                 F               0         IfW X-component position of node 52 (blade 2, node 23), m
        155    7.647E+01                                 F               0         IfW Y-component position of node 52 (blade 2, node 23), m