
Linearized model: Predictions were generated on 31-Jan-2024 at 12:35:17 using OpenFAST, compiled as a 64-bit application using single precision at commit v3.5.1
 linked with  NWTC Subroutine Library; ElastoDyn; InflowWind; AeroDyn; ServoDyn; HydroDyn; MAP++ (<1.20.10>, <Oct-20-2023>)

Description from the FAST input file: CCT-9 Campign 4 model. Input files to be run with OpenFAST 3.5.0. GitHub branch from Lu Wang (https://github.com/luwang00/openfast/tree/dev) compiled on March 7, 2023.

Simulation information:
   Simulation time:                   506.1750 s
   Rotor Speed:                         0.8937 rad/s
   Azimuth:                             6.2652 rad
   Wind Speed:                         10.0000 m/s
   Number of continuous states:        12
   Number of discrete states:           0
   Number of constraint states:         0
   Number of inputs:                 1890
   Number of outputs:                  19
   Jacobians included in this file?    No

Order of continuous states:
   Row/Column Operating Point                     Rotating Frame? Derivative Order Description
   ---------- ---------------                     --------------- ---------------- -----------
          1    8.166E+00                                 F               2         Platform horizontal surge translation DOF (internal DOF index = DOF_Sg), m
          2   -8.162E-02                                 F               2         Platform vertical heave translation DOF (internal DOF index = DOF_Hv), m
          3    7.103E-03                                 F               2         Platform yaw rotation DOF (internal DOF index = DOF_Y), rad
          4    3.850E-01                                 F               2         1st tower fore-aft bending mode DOF (internal DOF index = DOF_TFA1), m
          5    1.287E-03                                 F               2         2nd tower fore-aft bending mode DOF (internal DOF index = DOF_TFA2), m
          6    4.694E+00                                 F               2         Variable speed generator DOF (internal DOF index = DOF_GeAz), rad
          7   -2.321E-03                                 F               2         First time derivative of Platform horizontal surge translation DOF (internal DOF index = DOF_Sg), m/s
          8   -8.083E-03                                 F               2         First time derivative of Platform vertical heave translation DOF (internal DOF index = DOF_Hv), m/s
          9   -1.389E-06                                 F               2         First time derivative of Platform yaw rotation DOF (internal DOF index = DOF_Y), rad/s
         10    9.780E-04                                 F               2         First time derivative of 1st tower fore-aft bending mode DOF (internal DOF index = DOF_TFA1), m/s
         11   -1.017E-06                                 F               2         First time derivative of 2nd tower fore-aft bending mode DOF (internal DOF index = DOF_TFA2), m/s
         12    8.937E-01                                 F               2         First time derivative of Variable speed generator DOF (internal DOF index = DOF_GeAz), rad/s

Order of continuous state derivatives:
   Row/Column Operating Point                     Rotating Frame? Derivative Order Description
   ---------- ---------------                     --------------- ---------------- -----------
          1   -2.321E-03                                 F               2         First time derivative of Platform horizontal surge translation DOF (internal DOF index = DOF_Sg), m/s
          2   -8.083E-03                                 F               2         First time derivative of Platform vertical heave translation DOF (internal DOF index = DOF_Hv), m/s
          3   -1.389E-06                                 F               2         First time derivative of Platform yaw rotation DOF (internal DOF index = DOF_Y), rad/s
          4    9.780E-04                                 F               2         First time derivative of 1st tower fore-aft bending mode DOF (internal DOF index = DOF_TFA1), m/s
          5   -1.017E-06                                 F               2         First time derivative of 2nd tower fore-aft bending mode DOF (internal DOF index = DOF_TFA2), m/s
          6    8.937E-01                                 F               2         First time derivative of Variable speed generator DOF (internal DOF index = DOF_GeAz), rad/s
          7   -3.398E-04                                 F               2         First time derivative of First time derivative of Platform horizontal surge translation DOF (internal DOF index = DOF_Sg), m/s/s
          8    6.973E-04                                 F               2         First time derivative of First time derivative of Platform vertical heave translation DOF (internal DOF index = DOF_Hv), m/s/s
          9   -1.770E-06                                 F               2         First time derivative of First time derivative of Platform yaw rotation DOF (internal DOF index = DOF_Y), rad/s/s
         10   -1.035E-04                                 F               2         First time derivative of First time derivative of 1st tower fore-aft bending mode DOF (internal DOF index = DOF_TFA1), m/s/s
         11    4.292E-06                                 F               2         First time derivative of First time derivative of 2nd tower fore-aft bending mode DOF (internal DOF index = DOF_TFA2), m/s/s
         12   -1.409E-04                                 F               2         First time derivative of First time derivative of Variable speed generator DOF (internal DOF index = DOF_GeAz), rad/s/s

Order of inputs:
     Column   Operating Point                     Rotating Frame? Derivative Order Description
   ---------- ---------------                     --------------- ---------------- -----------
          1    7.349E+01                                 F               0         Blade 1 X force, node 1, N
          2    7.975E+01                                 F               0         Blade 1 Y force, node 1, N
          3   -7.500E+00                                 F               0         Blade 1 Z force, node 1, N
          4    3.161E+02                                 F               0         Blade 1 X force, node 2, N
          5    1.542E+02                                 F               0         Blade 1 Y force, node 2, N
          6   -3.684E+01                                 F               0         Blade 1 Z force, node 2, N
          7    4.133E+02                                 F               0         Blade 1 X force, node 3, N
          8    9.506E+01                                 F               0         Blade 1 Y force, node 3, N
          9   -5.075E+01                                 F               0         Blade 1 Z force, node 3, N
         10    5.441E+02                                 F               0         Blade 1 X force, node 4, N
         11    5.460E+01                                 F               0         Blade 1 Y force, node 4, N
         12   -6.853E+01                                 F               0         Blade 1 Z force, node 4, N
         13    6.749E+02                                 F               0         Blade 1 X force, node 5, N
         14    1.414E+01                                 F               0         Blade 1 Y force, node 5, N
         15   -8.630E+01                                 F               0         Blade 1 Z force, node 5, N
         16    8.057E+02                                 F               0         Blade 1 X force, node 6, N
         17   -2.631E+01                                 F               0         Blade 1 Y force, node 6, N
         18   -1.041E+02                                 F               0         Blade 1 Z force, node 6, N
         19    9.365E+02                                 F               0         Blade 1 X force, node 7, N
         20   -6.677E+01                                 F               0         Blade 1 Y force, node 7, N
         21   -1.219E+02                                 F               0         Blade 1 Z force, node 7, N
         22    1.067E+03                                 F               0         Blade 1 X force, node 8, N
         23   -1.072E+02                                 F               0         Blade 1 Y force, node 8, N
         24   -1.396E+02                                 F               0         Blade 1 Z force, node 8, N
         25    1.198E+03                                 F               0         Blade 1 X force, node 9, N
         26   -1.477E+02                                 F               0         Blade 1 Y force, node 9, N
         27   -1.574E+02                                 F               0         Blade 1 Z force, node 9, N
         28    1.329E+03                                 F               0         Blade 1 X force, node 10, N
         29   -1.881E+02                                 F               0         Blade 1 Y force, node 10, N
         30   -1.752E+02                                 F               0         Blade 1 Z force, node 10, N
         31    1.460E+03                                 F               0         Blade 1 X force, node 11, N
         32   -2.286E+02                                 F               0         Blade 1 Y force, node 11, N
         33   -1.930E+02                                 F               0         Blade 1 Z force, node 11, N
         34    1.591E+03                                 F               0         Blade 1 X force, node 12, N
         35   -2.691E+02                                 F               0         Blade 1 Y force, node 12, N
         36   -2.107E+02                                 F               0         Blade 1 Z force, node 12, N
         37    1.721E+03                                 F               0         Blade 1 X force, node 13, N
         38   -3.095E+02                                 F               0         Blade 1 Y force, node 13, N
         39   -2.285E+02                                 F               0         Blade 1 Z force, node 13, N
         40    1.852E+03                                 F               0         Blade 1 X force, node 14, N
         41   -3.500E+02                                 F               0         Blade 1 Y force, node 14, N
         42   -2.463E+02                                 F               0         Blade 1 Z force, node 14, N
         43    1.983E+03                                 F               0         Blade 1 X force, node 15, N
         44   -3.904E+02                                 F               0         Blade 1 Y force, node 15, N
         45   -2.641E+02                                 F               0         Blade 1 Z force, node 15, N
         46    2.114E+03                                 F               0         Blade 1 X force, node 16, N
         47   -4.309E+02                                 F               0         Blade 1 Y force, node 16, N
         48   -2.818E+02                                 F               0         Blade 1 Z force, node 16, N
         49    2.604E+03                                 F               0         Blade 1 X force, node 17, N
         50   -5.442E+02                                 F               0         Blade 1 Y force, node 17, N
         51   -3.475E+02                                 F               0         Blade 1 Z force, node 17, N
         52    1.999E+03                                 F               0         Blade 1 X force, node 18, N
         53   -4.019E+02                                 F               0         Blade 1 Y force, node 18, N
         54   -2.664E+02                                 F               0         Blade 1 Z force, node 18, N
         55    2.468E+03                                 F               0         Blade 1 X force, node 19, N
         56   -4.684E+02                                 F               0         Blade 1 Y force, node 19, N
         57   -3.283E+02                                 F               0         Blade 1 Z force, node 19, N
         58    2.117E+03                                 F               0         Blade 1 X force, node 20, N
         59   -3.798E+02                                 F               0         Blade 1 Y force, node 20, N
         60   -2.809E+02                                 F               0         Blade 1 Z force, node 20, N
         61    3.145E+03                                 F               0         Blade 1 X force, node 21, N
         62   -5.286E+02                                 F               0         Blade 1 Y force, node 21, N
         63   -4.166E+02                                 F               0         Blade 1 Z force, node 21, N
         64    2.793E+03                                 F               0         Blade 1 X force, node 22, N
         65   -4.390E+02                                 F               0         Blade 1 Y force, node 22, N
         66   -3.692E+02                                 F               0         Blade 1 Z force, node 22, N
         67    2.883E+03                                 F               0         Blade 1 X force, node 23, N
         68   -4.262E+02                                 F               0         Blade 1 Y force, node 23, N
         69   -3.805E+02                                 F               0         Blade 1 Z force, node 23, N
         70    3.025E+03                                 F               0         Blade 1 X force, node 24, N
         71   -4.206E+02                                 F               0         Blade 1 Y force, node 24, N
         72   -3.986E+02                                 F               0         Blade 1 Z force, node 24, N
         73    3.115E+03                                 F               0         Blade 1 X force, node 25, N
         74   -4.071E+02                                 F               0         Blade 1 Y force, node 25, N
         75   -4.098E+02                                 F               0         Blade 1 Z force, node 25, N
         76    3.221E+03                                 F               0         Blade 1 X force, node 26, N
         77   -3.960E+02                                 F               0         Blade 1 Y force, node 26, N
         78   -4.232E+02                                 F               0         Blade 1 Z force, node 26, N
         79    3.876E+03                                 F               0         Blade 1 X force, node 27, N
         80   -4.465E+02                                 F               0         Blade 1 Y force, node 27, N
         81   -5.085E+02                                 F               0         Blade 1 Z force, node 27, N
         82    2.885E+03                                 F               0         Blade 1 X force, node 28, N
         83   -3.116E+02                                 F               0         Blade 1 Y force, node 28, N
         84   -3.780E+02                                 F               0         Blade 1 Z force, node 28, N
         85    3.541E+03                                 F               0         Blade 1 X force, node 29, N
         86   -3.618E+02                                 F               0         Blade 1 Y force, node 29, N
         87   -4.633E+02                                 F               0         Blade 1 Z force, node 29, N
         88    3.021E+03                                 F               0         Blade 1 X force, node 30, N
         89   -2.922E+02                                 F               0         Blade 1 Y force, node 30, N
         90   -3.950E+02                                 F               0         Blade 1 Z force, node 30, N
         91    4.379E+03                                 F               0         Blade 1 X force, node 31, N
         92   -3.967E+02                                 F               0         Blade 1 Y force, node 31, N
         93   -5.718E+02                                 F               0         Blade 1 Z force, node 31, N
         94    3.859E+03                                 F               0         Blade 1 X force, node 32, N
         95   -3.267E+02                                 F               0         Blade 1 Y force, node 32, N
         96   -5.034E+02                                 F               0         Blade 1 Z force, node 32, N
         97    3.964E+03                                 F               0         Blade 1 X force, node 33, N
         98   -3.148E+02                                 F               0         Blade 1 Y force, node 33, N
         99   -5.166E+02                                 F               0         Blade 1 Z force, node 33, N
        100    4.071E+03                                 F               0         Blade 1 X force, node 34, N
        101   -3.029E+02                                 F               0         Blade 1 Y force, node 34, N
        102   -5.300E+02                                 F               0         Blade 1 Z force, node 34, N
        103    4.177E+03                                 F               0         Blade 1 X force, node 35, N
        104   -2.909E+02                                 F               0         Blade 1 Y force, node 35, N
        105   -5.433E+02                                 F               0         Blade 1 Z force, node 35, N
        106    4.282E+03                                 F               0         Blade 1 X force, node 36, N
        107   -2.787E+02                                 F               0         Blade 1 Y force, node 36, N
        108   -5.565E+02                                 F               0         Blade 1 Z force, node 36, N
        109    5.134E+03                                 F               0         Blade 1 X force, node 37, N
        110   -3.106E+02                                 F               0         Blade 1 Y force, node 37, N
        111   -6.667E+02                                 F               0         Blade 1 Z force, node 37, N
        112    3.747E+03                                 F               0         Blade 1 X force, node 38, N
        113   -2.105E+02                                 F               0         Blade 1 Y force, node 38, N
        114   -4.862E+02                                 F               0         Blade 1 Z force, node 38, N
        115    4.600E+03                                 F               0         Blade 1 X force, node 39, N
        116   -2.424E+02                                 F               0         Blade 1 Y force, node 39, N
        117   -5.965E+02                                 F               0         Blade 1 Z force, node 39, N
        118    3.929E+03                                 F               0         Blade 1 X force, node 40, N
        119   -1.938E+02                                 F               0         Blade 1 Y force, node 40, N
        120   -5.091E+02                                 F               0         Blade 1 Z force, node 40, N
        121    5.591E+03                                 F               0         Blade 1 X force, node 41, N
        122   -2.545E+02                                 F               0         Blade 1 Y force, node 41, N
        123   -7.240E+02                                 F               0         Blade 1 Z force, node 41, N
        124    4.918E+03                                 F               0         Blade 1 X force, node 42, N
        125   -2.056E+02                                 F               0         Blade 1 Y force, node 42, N
        126   -6.364E+02                                 F               0         Blade 1 Z force, node 42, N
        127    5.023E+03                                 F               0         Blade 1 X force, node 43, N
        128   -1.932E+02                                 F               0         Blade 1 Y force, node 43, N
        129   -6.495E+02                                 F               0         Blade 1 Z force, node 43, N
        130    5.155E+03                                 F               0         Blade 1 X force, node 44, N
        131   -1.817E+02                                 F               0         Blade 1 Y force, node 44, N
        132   -6.662E+02                                 F               0         Blade 1 Z force, node 44, N
        133    5.205E+03                                 F               0         Blade 1 X force, node 45, N
        134   -1.674E+02                                 F               0         Blade 1 Y force, node 45, N
        135   -6.724E+02                                 F               0         Blade 1 Z force, node 45, N
        136    5.338E+03                                 F               0         Blade 1 X force, node 46, N
        137   -1.558E+02                                 F               0         Blade 1 Y force, node 46, N
        138   -6.891E+02                                 F               0         Blade 1 Z force, node 46, N
        139    6.398E+03                                 F               0         Blade 1 X force, node 47, N
        140   -1.673E+02                                 F               0         Blade 1 Y force, node 47, N
        141   -8.255E+02                                 F               0         Blade 1 Z force, node 47, N
        142    4.592E+03                                 F               0         Blade 1 X force, node 48, N
        143   -1.068E+02                                 F               0         Blade 1 Y force, node 48, N
        144   -5.921E+02                                 F               0         Blade 1 Z force, node 48, N
        145    5.652E+03                                 F               0         Blade 1 X force, node 49, N
        146   -1.182E+02                                 F               0         Blade 1 Y force, node 49, N
        147   -7.285E+02                                 F               0         Blade 1 Z force, node 49, N
        148    4.840E+03                                 F               0         Blade 1 X force, node 50, N
        149   -9.010E+01                                 F               0         Blade 1 Y force, node 50, N
        150   -6.236E+02                                 F               0         Blade 1 Z force, node 50, N
        151    6.777E+03                                 F               0         Blade 1 X force, node 51, N
        152   -1.086E+02                                 F               0         Blade 1 Y force, node 51, N
        153   -8.727E+02                                 F               0         Blade 1 Z force, node 51, N
        154    5.967E+03                                 F               0         Blade 1 X force, node 52, N
        155   -8.056E+01                                 F               0         Blade 1 Y force, node 52, N
        156   -7.680E+02                                 F               0         Blade 1 Z force, node 52, N
        157    6.073E+03                                 F               0         Blade 1 X force, node 53, N
        158   -6.805E+01                                 F               0         Blade 1 Y force, node 53, N
        159   -7.813E+02                                 F               0         Blade 1 Z force, node 53, N
        160    6.247E+03                                 F               0         Blade 1 X force, node 54, N
        161   -5.610E+01                                 F               0         Blade 1 Y force, node 54, N
        162   -8.034E+02                                 F               0         Blade 1 Z force, node 54, N
        163    6.216E+03                                 F               0         Blade 1 X force, node 55, N
        164   -4.239E+01                                 F               0         Blade 1 Y force, node 55, N
        165   -7.991E+02                                 F               0         Blade 1 Z force, node 55, N
        166    6.390E+03                                 F               0         Blade 1 X force, node 56, N
        167   -3.035E+01                                 F               0         Blade 1 Y force, node 56, N
        168   -8.211E+02                                 F               0         Blade 1 Z force, node 56, N
        169    7.671E+03                                 F               0         Blade 1 X force, node 57, N
        170   -1.991E+01                                 F               0         Blade 1 Y force, node 57, N
        171   -9.853E+02                                 F               0         Blade 1 Z force, node 57, N
        172    5.425E+03                                 F               0         Blade 1 X force, node 58, N
        173   -2.954E+00                                 F               0         Blade 1 Y force, node 58, N
        174   -6.965E+02                                 F               0         Blade 1 Z force, node 58, N
        175    6.706E+03                                 F               0         Blade 1 X force, node 59, N
        176    7.532E+00                                 F               0         Blade 1 Y force, node 59, N
        177   -8.608E+02                                 F               0         Blade 1 Z force, node 59, N
        178    5.768E+03                                 F               0         Blade 1 X force, node 60, N
        179    1.603E+01                                 F               0         Blade 1 Y force, node 60, N
        180   -7.402E+02                                 F               0         Blade 1 Z force, node 60, N
        181    7.959E+03                                 F               0         Blade 1 X force, node 61, N
        182    3.703E+01                                 F               0         Blade 1 Y force, node 61, N
        183   -1.021E+03                                 F               0         Blade 1 Z force, node 61, N
        184    7.019E+03                                 F               0         Blade 1 X force, node 62, N
        185    4.566E+01                                 F               0         Blade 1 Y force, node 62, N
        186   -9.001E+02                                 F               0         Blade 1 Z force, node 62, N
        187    7.123E+03                                 F               0         Blade 1 X force, node 63, N
        188    5.844E+01                                 F               0         Blade 1 Y force, node 63, N
        189   -9.130E+02                                 F               0         Blade 1 Z force, node 63, N
        190    7.348E+03                                 F               0         Blade 1 X force, node 64, N
        191    7.247E+01                                 F               0         Blade 1 Y force, node 64, N
        192   -9.416E+02                                 F               0         Blade 1 Z force, node 64, N
        193    7.212E+03                                 F               0         Blade 1 X force, node 65, N
        194    8.263E+01                                 F               0         Blade 1 Y force, node 65, N
        195   -9.239E+02                                 F               0         Blade 1 Z force, node 65, N
        196    7.439E+03                                 F               0         Blade 1 X force, node 66, N
        197    9.654E+01                                 F               0         Blade 1 Y force, node 66, N
        198   -9.528E+02                                 F               0         Blade 1 Z force, node 66, N
        199    8.952E+03                                 F               0         Blade 1 X force, node 67, N
        200    1.305E+02                                 F               0         Blade 1 Y force, node 67, N
        201   -1.146E+03                                 F               0         Blade 1 Z force, node 67, N
        202    6.246E+03                                 F               0         Blade 1 X force, node 68, N
        203    1.007E+02                                 F               0         Blade 1 Y force, node 68, N
        204   -7.994E+02                                 F               0         Blade 1 Z force, node 68, N
        205    7.756E+03                                 F               0         Blade 1 X force, node 69, N
        206    1.348E+02                                 F               0         Blade 1 Y force, node 69, N
        207   -9.925E+02                                 F               0         Blade 1 Z force, node 69, N
        208    6.704E+03                                 F               0         Blade 1 X force, node 70, N
        209    1.250E+02                                 F               0         Blade 1 Y force, node 70, N
        210   -8.576E+02                                 F               0         Blade 1 Z force, node 70, N
        211    9.122E+03                                 F               0         Blade 1 X force, node 71, N
        212    1.831E+02                                 F               0         Blade 1 Y force, node 71, N
        213   -1.167E+03                                 F               0         Blade 1 Z force, node 71, N
        214    8.066E+03                                 F               0         Blade 1 X force, node 72, N
        215    1.736E+02                                 F               0         Blade 1 Y force, node 72, N
        216   -1.031E+03                                 F               0         Blade 1 Z force, node 72, N
        217    8.167E+03                                 F               0         Blade 1 X force, node 73, N