
Linearized model: Predictions were generated on 06-Feb-2024 at 16:18:08 using OpenFAST, compiled as a 64-bit application using single precision at commit v3.5.1
 linked with  NWTC Subroutine Library; ElastoDyn; InflowWind; AeroDyn; ServoDyn; HydroDyn; MAP++ (<1.20.10>, <Oct-20-2023>)

Description from the FAST input file: CCT-9 Campign 4 model. Input files to be run with OpenFAST 3.5.0. GitHub branch from Lu Wang (https://github.com/luwang00/openfast/tree/dev) compiled on March 7, 2023.

Simulation information:
   Simulation time:                  1008.4500 s
   Rotor Speed:                         1.0421 rad/s
   Azimuth:                             4.0219 rad
   Wind Speed:                         12.0000 m/s
   Number of continuous states:        18
   Number of discrete states:           0
   Number of constraint states:         0
   Number of inputs:                 1890
   Number of outputs:                  19
   Jacobians included in this file?    No

Order of continuous states:
   Row/Column Operating Point                     Rotating Frame? Derivative Order Description
   ---------- ---------------                     --------------- ---------------- -----------
          1    1.231E+01                                 F               2         Platform horizontal surge translation DOF (internal DOF index = DOF_Sg), m
          2   -2.387E-01                                 F               2         Platform vertical heave translation DOF (internal DOF index = DOF_Hv), m
          3    4.694E-02                                 F               2         Platform roll tilt rotation DOF (internal DOF index = DOF_R), rad
          4    1.559E-01                                 F               2         Platform pitch tilt rotation DOF (internal DOF index = DOF_P), rad
          5    1.079E+00                                 F               2         1st tower fore-aft bending mode DOF (internal DOF index = DOF_TFA1), m
          6    1.761E-01                                 F               2         1st tower side-to-side bending mode DOF (internal DOF index = DOF_TSS1), m
          7    1.611E-03                                 F               2         2nd tower fore-aft bending mode DOF (internal DOF index = DOF_TFA2), m
          8    7.714E-05                                 F               2         2nd tower side-to-side bending mode DOF (internal DOF index = DOF_TSS2), m
          9    2.451E+00                                 F               2         Variable speed generator DOF (internal DOF index = DOF_GeAz), rad
         10    4.499E-05                                 F               2         First time derivative of Platform horizontal surge translation DOF (internal DOF index = DOF_Sg), m/s
         11    4.820E-03                                 F               2         First time derivative of Platform vertical heave translation DOF (internal DOF index = DOF_Hv), m/s
         12    4.579E-05                                 F               2         First time derivative of Platform roll tilt rotation DOF (internal DOF index = DOF_R), rad/s
         13    2.003E-06                                 F               2         First time derivative of Platform pitch tilt rotation DOF (internal DOF index = DOF_P), rad/s
         14    1.640E-03                                 F               2         First time derivative of 1st tower fore-aft bending mode DOF (internal DOF index = DOF_TFA1), m/s
         15   -2.152E-03                                 F               2         First time derivative of 1st tower side-to-side bending mode DOF (internal DOF index = DOF_TSS1), m/s
         16    9.105E-06                                 F               2         First time derivative of 2nd tower fore-aft bending mode DOF (internal DOF index = DOF_TFA2), m/s
         17    1.046E-06                                 F               2         First time derivative of 2nd tower side-to-side bending mode DOF (internal DOF index = DOF_TSS2), m/s
         18    1.042E+00                                 F               2         First time derivative of Variable speed generator DOF (internal DOF index = DOF_GeAz), rad/s

Order of continuous state derivatives:
   Row/Column Operating Point                     Rotating Frame? Derivative Order Description
   ---------- ---------------                     --------------- ---------------- -----------
          1    4.499E-05                                 F               2         First time derivative of Platform horizontal surge translation DOF (internal DOF index = DOF_Sg), m/s
          2    4.820E-03                                 F               2         First time derivative of Platform vertical heave translation DOF (internal DOF index = DOF_Hv), m/s
          3    4.579E-05                                 F               2         First time derivative of Platform roll tilt rotation DOF (internal DOF index = DOF_R), rad/s
          4    2.003E-06                                 F               2         First time derivative of Platform pitch tilt rotation DOF (internal DOF index = DOF_P), rad/s
          5    1.640E-03                                 F               2         First time derivative of 1st tower fore-aft bending mode DOF (internal DOF index = DOF_TFA1), m/s
          6   -2.152E-03                                 F               2         First time derivative of 1st tower side-to-side bending mode DOF (internal DOF index = DOF_TSS1), m/s
          7    9.105E-06                                 F               2         First time derivative of 2nd tower fore-aft bending mode DOF (internal DOF index = DOF_TFA2), m/s
          8    1.046E-06                                 F               2         First time derivative of 2nd tower side-to-side bending mode DOF (internal DOF index = DOF_TSS2), m/s
          9    1.042E+00                                 F               2         First time derivative of Variable speed generator DOF (internal DOF index = DOF_GeAz), rad/s
         10   -3.896E-04                                 F               2         First time derivative of First time derivative of Platform horizontal surge translation DOF (internal DOF index = DOF_Sg), m/s/s
         11   -6.838E-04                                 F               2         First time derivative of First time derivative of Platform vertical heave translation DOF (internal DOF index = DOF_Hv), m/s/s
         12    1.016E-05                                 F               2         First time derivative of First time derivative of Platform roll tilt rotation DOF (internal DOF index = DOF_R), rad/s/s
         13   -2.059E-05                                 F               2         First time derivative of First time derivative of Platform pitch tilt rotation DOF (internal DOF index = DOF_P), rad/s/s
         14    3.357E-03                                 F               2         First time derivative of First time derivative of 1st tower fore-aft bending mode DOF (internal DOF index = DOF_TFA1), m/s/s
         15    3.423E-05                                 F               2         First time derivative of First time derivative of 1st tower side-to-side bending mode DOF (internal DOF index = DOF_TSS1), m/s/s
         16    1.206E-05                                 F               2         First time derivative of First time derivative of 2nd tower fore-aft bending mode DOF (internal DOF index = DOF_TFA2), m/s/s
         17    6.427E-06                                 F               2         First time derivative of First time derivative of 2nd tower side-to-side bending mode DOF (internal DOF index = DOF_TSS2), m/s/s
         18    4.275E-06                                 F               2         First time derivative of First time derivative of Variable speed generator DOF (internal DOF index = DOF_GeAz), rad/s/s

Order of inputs:
     Column   Operating Point                     Rotating Frame? Derivative Order Description
   ---------- ---------------                     --------------- ---------------- -----------
          1    8.012E+01                                 F               0         Blade 1 X force, node 1, N
          2   -3.095E+01                                 F               0         Blade 1 Y force, node 1, N
          3   -6.567E+01                                 F               0         Blade 1 Z force, node 1, N
          4    3.843E+02                                 F               0         Blade 1 X force, node 2, N
          5   -6.305E+01                                 F               0         Blade 1 Y force, node 2, N
          6   -1.962E+02                                 F               0         Blade 1 Z force, node 2, N
          7    5.607E+02                                 F               0         Blade 1 X force, node 3, N
          8   -1.222E+01                                 F               0         Blade 1 Y force, node 3, N
          9   -1.752E+02                                 F               0         Blade 1 Z force, node 3, N
         10    7.785E+02                                 F               0         Blade 1 X force, node 4, N
         11    3.186E+01                                 F               0         Blade 1 Y force, node 4, N
         12   -1.753E+02                                 F               0         Blade 1 Z force, node 4, N
         13    9.963E+02                                 F               0         Blade 1 X force, node 5, N
         14    7.594E+01                                 F               0         Blade 1 Y force, node 5, N
         15   -1.754E+02                                 F               0         Blade 1 Z force, node 5, N
         16    1.214E+03                                 F               0         Blade 1 X force, node 6, N
         17    1.200E+02                                 F               0         Blade 1 Y force, node 6, N
         18   -1.755E+02                                 F               0         Blade 1 Z force, node 6, N
         19    1.432E+03                                 F               0         Blade 1 X force, node 7, N
         20    1.641E+02                                 F               0         Blade 1 Y force, node 7, N
         21   -1.756E+02                                 F               0         Blade 1 Z force, node 7, N
         22    1.650E+03                                 F               0         Blade 1 X force, node 8, N
         23    2.082E+02                                 F               0         Blade 1 Y force, node 8, N
         24   -1.757E+02                                 F               0         Blade 1 Z force, node 8, N
         25    1.867E+03                                 F               0         Blade 1 X force, node 9, N
         26    2.523E+02                                 F               0         Blade 1 Y force, node 9, N
         27   -1.758E+02                                 F               0         Blade 1 Z force, node 9, N
         28    2.085E+03                                 F               0         Blade 1 X force, node 10, N
         29    2.963E+02                                 F               0         Blade 1 Y force, node 10, N
         30   -1.759E+02                                 F               0         Blade 1 Z force, node 10, N
         31    2.303E+03                                 F               0         Blade 1 X force, node 11, N
         32    3.404E+02                                 F               0         Blade 1 Y force, node 11, N
         33   -1.760E+02                                 F               0         Blade 1 Z force, node 11, N
         34    2.521E+03                                 F               0         Blade 1 X force, node 12, N
         35    3.845E+02                                 F               0         Blade 1 Y force, node 12, N
         36   -1.761E+02                                 F               0         Blade 1 Z force, node 12, N
         37    2.738E+03                                 F               0         Blade 1 X force, node 13, N
         38    4.286E+02                                 F               0         Blade 1 Y force, node 13, N
         39   -1.762E+02                                 F               0         Blade 1 Z force, node 13, N
         40    2.956E+03                                 F               0         Blade 1 X force, node 14, N
         41    4.727E+02                                 F               0         Blade 1 Y force, node 14, N
         42   -1.763E+02                                 F               0         Blade 1 Z force, node 14, N
         43    3.174E+03                                 F               0         Blade 1 X force, node 15, N
         44    5.167E+02                                 F               0         Blade 1 Y force, node 15, N
         45   -1.764E+02                                 F               0         Blade 1 Z force, node 15, N
         46    3.392E+03                                 F               0         Blade 1 X force, node 16, N
         47    5.608E+02                                 F               0         Blade 1 Y force, node 16, N
         48   -1.765E+02                                 F               0         Blade 1 Z force, node 16, N
         49    4.185E+03                                 F               0         Blade 1 X force, node 17, N
         50    6.986E+02                                 F               0         Blade 1 Y force, node 17, N
         51   -2.086E+02                                 F               0         Blade 1 Z force, node 17, N
         52    3.195E+03                                 F               0         Blade 1 X force, node 18, N
         53    5.149E+02                                 F               0         Blade 1 Y force, node 18, N
         54   -1.848E+02                                 F               0         Blade 1 Z force, node 18, N
         55    3.916E+03                                 F               0         Blade 1 X force, node 19, N
         56    6.018E+02                                 F               0         Blade 1 Y force, node 19, N
         57   -2.673E+02                                 F               0         Blade 1 Z force, node 19, N
         58    3.335E+03                                 F               0         Blade 1 X force, node 20, N
         59    4.894E+02                                 F               0         Blade 1 Y force, node 20, N
         60   -2.598E+02                                 F               0         Blade 1 Z force, node 20, N
         61    4.919E+03                                 F               0         Blade 1 X force, node 21, N
         62    6.842E+02                                 F               0         Blade 1 Y force, node 21, N
         63   -4.359E+02                                 F               0         Blade 1 Z force, node 21, N
         64    4.338E+03                                 F               0         Blade 1 X force, node 22, N
         65    5.719E+02                                 F               0         Blade 1 Y force, node 22, N
         66   -4.282E+02                                 F               0         Blade 1 Z force, node 22, N
         67    4.453E+03                                 F               0         Blade 1 X force, node 23, N
         68    5.588E+02                                 F               0         Blade 1 Y force, node 23, N
         69   -4.787E+02                                 F               0         Blade 1 Z force, node 23, N
         70    4.646E+03                                 F               0         Blade 1 X force, node 24, N
         71    5.553E+02                                 F               0         Blade 1 Y force, node 24, N
         72   -5.382E+02                                 F               0         Blade 1 Z force, node 24, N
         73    4.760E+03                                 F               0         Blade 1 X force, node 25, N
         74    5.423E+02                                 F               0         Blade 1 Y force, node 25, N
         75   -5.884E+02                                 F               0         Blade 1 Z force, node 25, N
         76    4.900E+03                                 F               0         Blade 1 X force, node 26, N
         77    5.324E+02                                 F               0         Blade 1 Y force, node 26, N
         78   -6.415E+02                                 F               0         Blade 1 Z force, node 26, N
         79    5.869E+03                                 F               0         Blade 1 X force, node 27, N
         80    6.069E+02                                 F               0         Blade 1 Y force, node 27, N
         81   -8.115E+02                                 F               0         Blade 1 Z force, node 27, N
         82    4.349E+03                                 F               0         Blade 1 X force, node 28, N
         83    4.285E+02                                 F               0         Blade 1 Y force, node 28, N
         84   -6.309E+02                                 F               0         Blade 1 Z force, node 28, N
         85    5.318E+03                                 F               0         Blade 1 X force, node 29, N
         86    5.030E+02                                 F               0         Blade 1 Y force, node 29, N
         87   -8.006E+02                                 F               0         Blade 1 Z force, node 29, N
         88    4.523E+03                                 F               0         Blade 1 X force, node 30, N
         89    4.108E+02                                 F               0         Blade 1 Y force, node 30, N
         90   -7.045E+02                                 F               0         Blade 1 Z force, node 30, N
         91    6.531E+03                                 F               0         Blade 1 X force, node 31, N
         92    5.657E+02                                 F               0         Blade 1 Y force, node 31, N
         93   -1.056E+03                                 F               0         Blade 1 Z force, node 31, N
         94    5.734E+03                                 F               0         Blade 1 X force, node 32, N
         95    4.734E+02                                 F               0         Blade 1 Y force, node 32, N
         96   -9.590E+02                                 F               0         Blade 1 Z force, node 32, N
         97    5.871E+03                                 F               0         Blade 1 X force, node 33, N
         98    4.635E+02                                 F               0         Blade 1 Y force, node 33, N
         99   -1.012E+03                                 F               0         Blade 1 Z force, node 33, N
        100    6.010E+03                                 F               0         Blade 1 X force, node 34, N
        101    4.537E+02                                 F               0         Blade 1 Y force, node 34, N
        102   -1.064E+03                                 F               0         Blade 1 Z force, node 34, N
        103    6.148E+03                                 F               0         Blade 1 X force, node 35, N
        104    4.441E+02                                 F               0         Blade 1 Y force, node 35, N
        105   -1.117E+03                                 F               0         Blade 1 Z force, node 35, N
        106    6.286E+03                                 F               0         Blade 1 X force, node 36, N
        107    4.343E+02                                 F               0         Blade 1 Y force, node 36, N
        108   -1.169E+03                                 F               0         Blade 1 Z force, node 36, N
        109    7.515E+03                                 F               0         Blade 1 X force, node 37, N
        110    4.954E+02                                 F               0         Blade 1 Y force, node 37, N
        111   -1.431E+03                                 F               0         Blade 1 Z force, node 37, N
        112    5.471E+03                                 F               0         Blade 1 X force, node 38, N
        113    3.443E+02                                 F               0         Blade 1 Y force, node 38, N
        114   -1.065E+03                                 F               0         Blade 1 Z force, node 38, N
        115    6.703E+03                                 F               0         Blade 1 X force, node 39, N
        116    4.057E+02                                 F               0         Blade 1 Y force, node 39, N
        117   -1.327E+03                                 F               0         Blade 1 Z force, node 39, N
        118    5.713E+03                                 F               0         Blade 1 X force, node 40, N
        119    3.324E+02                                 F               0         Blade 1 Y force, node 40, N
        120   -1.149E+03                                 F               0         Blade 1 Z force, node 40, N
        121    8.111E+03                                 F               0         Blade 1 X force, node 41, N
        122    4.506E+02                                 F               0         Blade 1 Y force, node 41, N
        123   -1.662E+03                                 F               0         Blade 1 Z force, node 41, N
        124    7.120E+03                                 F               0         Blade 1 X force, node 42, N
        125    3.773E+02                                 F               0         Blade 1 Y force, node 42, N
        126   -1.484E+03                                 F               0         Blade 1 Z force, node 42, N
        127    7.258E+03                                 F               0         Blade 1 X force, node 43, N
        128    3.678E+02                                 F               0         Blade 1 Y force, node 43, N
        129   -1.536E+03                                 F               0         Blade 1 Z force, node 43, N
        130    7.435E+03                                 F               0         Blade 1 X force, node 44, N
        131    3.602E+02                                 F               0         Blade 1 Y force, node 44, N
        132   -1.597E+03                                 F               0         Blade 1 Z force, node 44, N
        133    7.495E+03                                 F               0         Blade 1 X force, node 45, N
        134    3.471E+02                                 F               0         Blade 1 Y force, node 45, N
        135   -1.632E+03                                 F               0         Blade 1 Z force, node 45, N
        136    7.673E+03                                 F               0         Blade 1 X force, node 46, N
        137    3.396E+02                                 F               0         Blade 1 Y force, node 46, N
        138   -1.692E+03                                 F               0         Blade 1 Z force, node 46, N
        139    9.182E+03                                 F               0         Blade 1 X force, node 47, N
        140    3.870E+02                                 F               0         Blade 1 Y force, node 47, N
        141   -2.052E+03                                 F               0         Blade 1 Z force, node 47, N
        142    6.580E+03                                 F               0         Blade 1 X force, node 48, N
        143    2.642E+02                                 F               0         Blade 1 Y force, node 48, N
        144   -1.489E+03                                 F               0         Blade 1 Z force, node 48, N
        145    8.088E+03                                 F               0         Blade 1 X force, node 49, N
        146    3.116E+02                                 F               0         Blade 1 Y force, node 49, N
        147   -1.849E+03                                 F               0         Blade 1 Z force, node 49, N
        148    6.918E+03                                 F               0         Blade 1 X force, node 50, N
        149    2.555E+02                                 F               0         Blade 1 Y force, node 50, N
        150   -1.597E+03                                 F               0         Blade 1 Z force, node 50, N
        151    9.673E+03                                 F               0         Blade 1 X force, node 51, N
        152    3.398E+02                                 F               0         Blade 1 Y force, node 51, N
        153   -2.257E+03                                 F               0         Blade 1 Z force, node 51, N
        154    8.506E+03                                 F               0         Blade 1 X force, node 52, N
        155    2.839E+02                                 F               0         Blade 1 Y force, node 52, N
        156   -2.005E+03                                 F               0         Blade 1 Z force, node 52, N
        157    8.647E+03                                 F               0         Blade 1 X force, node 53, N
        158    2.748E+02                                 F               0         Blade 1 Y force, node 53, N
        159   -2.057E+03                                 F               0         Blade 1 Z force, node 53, N
        160    8.885E+03                                 F               0         Blade 1 X force, node 54, N
        161    2.686E+02                                 F               0         Blade 1 Y force, node 54, N
        162   -2.133E+03                                 F               0         Blade 1 Z force, node 54, N
        163    8.831E+03                                 F               0         Blade 1 X force, node 55, N
        164    2.538E+02                                 F               0         Blade 1 Y force, node 55, N
        165   -2.139E+03                                 F               0         Blade 1 Z force, node 55, N
        166    9.068E+03                                 F               0         Blade 1 X force, node 56, N
        167    2.476E+02                                 F               0         Blade 1 Y force, node 56, N
        168   -2.214E+03                                 F               0         Blade 1 Z force, node 56, N
        169    1.087E+04                                 F               0         Blade 1 X force, node 57, N
        170    2.806E+02                                 F               0         Blade 1 Y force, node 57, N
        171   -2.678E+03                                 F               0         Blade 1 Z force, node 57, N
        172    7.683E+03                                 F               0         Blade 1 X force, node 58, N
        173    1.873E+02                                 F               0         Blade 1 Y force, node 58, N
        174   -1.907E+03                                 F               0         Blade 1 Z force, node 58, N
        175    9.490E+03                                 F               0         Blade 1 X force, node 59, N
        176    2.204E+02                                 F               0         Blade 1 Y force, node 59, N
        177   -2.371E+03                                 F               0         Blade 1 Z force, node 59, N
        178    8.157E+03                                 F               0         Blade 1 X force, node 60, N
        179    1.801E+02                                 F               0         Blade 1 Y force, node 60, N
        180   -2.051E+03                                 F               0         Blade 1 Z force, node 60, N
        181    1.124E+04                                 F               0         Blade 1 X force, node 61, N
        182    2.337E+02                                 F               0         Blade 1 Y force, node 61, N
        183   -2.848E+03                                 F               0         Blade 1 Z force, node 61, N
        184    9.908E+03                                 F               0         Blade 1 X force, node 62, N
        185    1.932E+02                                 F               0         Blade 1 Y force, node 62, N
        186   -2.527E+03                                 F               0         Blade 1 Z force, node 62, N
        187    1.005E+04                                 F               0         Blade 1 X force, node 63, N
        188    1.841E+02                                 F               0         Blade 1 Y force, node 63, N
        189   -2.579E+03                                 F               0         Blade 1 Z force, node 63, N
        190    1.036E+04                                 F               0         Blade 1 X force, node 64, N
        191    1.778E+02                                 F               0         Blade 1 Y force, node 64, N
        192   -2.675E+03                                 F               0         Blade 1 Z force, node 64, N
        193    1.016E+04                                 F               0         Blade 1 X force, node 65, N
        194    1.632E+02                                 F               0         Blade 1 Y force, node 65, N
        195   -2.639E+03                                 F               0         Blade 1 Z force, node 65, N
        196    1.047E+04                                 F               0         Blade 1 X force, node 66, N
        197    1.572E+02                                 F               0         Blade 1 Y force, node 66, N