
Linearized model: Predictions were generated on 06-Feb-2024 at 16:18:08 using OpenFAST, compiled as a 64-bit application using single precision at commit v3.5.1
 linked with  NWTC Subroutine Library; ElastoDyn; InflowWind; AeroDyn; ServoDyn; HydroDyn; MAP++ (<1.20.10>, <Oct-20-2023>)

Description from the FAST input file: CCT-9 Campign 4 model. Input files to be run with OpenFAST 3.5.0. GitHub branch from Lu Wang (https://github.com/luwang00/openfast/tree/dev) compiled on March 7, 2023.

Simulation information:
   Simulation time:                  1004.2250 s
   Rotor Speed:                         1.0419 rad/s
   Azimuth:                             5.9030 rad
   Wind Speed:                         12.0000 m/s
   Number of continuous states:        18
   Number of discrete states:           0
   Number of constraint states:         0
   Number of inputs:                 3988
   Number of outputs:                  36
   Jacobians included in this file?    No

Order of continuous states:
   Row/Column Operating Point                     Rotating Frame? Derivative Order Description
   ---------- ---------------                     --------------- ---------------- -----------
          1    1.231E+01                                 F               2         ED Platform horizontal surge translation DOF (internal DOF index = DOF_Sg), m
          2   -2.567E-01                                 F               2         ED Platform vertical heave translation DOF (internal DOF index = DOF_Hv), m
          3    4.698E-02                                 F               2         ED Platform roll tilt rotation DOF (internal DOF index = DOF_R), rad
          4    1.558E-01                                 F               2         ED Platform pitch tilt rotation DOF (internal DOF index = DOF_P), rad
          5    1.080E+00                                 F               2         ED 1st tower fore-aft bending mode DOF (internal DOF index = DOF_TFA1), m
          6    1.737E-01                                 F               2         ED 1st tower side-to-side bending mode DOF (internal DOF index = DOF_TSS1), m
          7    1.605E-03                                 F               2         ED 2nd tower fore-aft bending mode DOF (internal DOF index = DOF_TFA2), m
          8    7.987E-05                                 F               2         ED 2nd tower side-to-side bending mode DOF (internal DOF index = DOF_TSS2), m
          9    4.332E+00                                 F               2         ED Variable speed generator DOF (internal DOF index = DOF_GeAz), rad
         10   -1.319E-04                                 F               2         ED First time derivative of Platform horizontal surge translation DOF (internal DOF index = DOF_Sg), m/s
         11    2.071E-03                                 F               2         ED First time derivative of Platform vertical heave translation DOF (internal DOF index = DOF_Hv), m/s
         12   -3.699E-06                                 F               2         ED First time derivative of Platform roll tilt rotation DOF (internal DOF index = DOF_R), rad/s
         13   -1.007E-05                                 F               2         ED First time derivative of Platform pitch tilt rotation DOF (internal DOF index = DOF_P), rad/s
         14    1.450E-03                                 F               2         ED First time derivative of 1st tower fore-aft bending mode DOF (internal DOF index = DOF_TFA1), m/s
         15   -1.484E-04                                 F               2         ED First time derivative of 1st tower side-to-side bending mode DOF (internal DOF index = DOF_TSS1), m/s
         16   -2.539E-06                                 F               2         ED First time derivative of 2nd tower fore-aft bending mode DOF (internal DOF index = DOF_TFA2), m/s
         17   -1.536E-06                                 F               2         ED First time derivative of 2nd tower side-to-side bending mode DOF (internal DOF index = DOF_TSS2), m/s
         18    1.042E+00                                 F               2         ED First time derivative of Variable speed generator DOF (internal DOF index = DOF_GeAz), rad/s

Order of continuous state derivatives:
   Row/Column Operating Point                     Rotating Frame? Derivative Order Description
   ---------- ---------------                     --------------- ---------------- -----------
          1   -1.319E-04                                 F               2         First time derivative of ED Platform horizontal surge translation DOF (internal DOF index = DOF_Sg), m/s
          2    2.071E-03                                 F               2         First time derivative of ED Platform vertical heave translation DOF (internal DOF index = DOF_Hv), m/s
          3   -3.699E-06                                 F               2         First time derivative of ED Platform roll tilt rotation DOF (internal DOF index = DOF_R), rad/s
          4   -1.007E-05                                 F               2         First time derivative of ED Platform pitch tilt rotation DOF (internal DOF index = DOF_P), rad/s
          5    1.450E-03                                 F               2         First time derivative of ED 1st tower fore-aft bending mode DOF (internal DOF index = DOF_TFA1), m/s
          6   -1.484E-04                                 F               2         First time derivative of ED 1st tower side-to-side bending mode DOF (internal DOF index = DOF_TSS1), m/s
          7   -2.539E-06                                 F               2         First time derivative of ED 2nd tower fore-aft bending mode DOF (internal DOF index = DOF_TFA2), m/s
          8   -1.536E-06                                 F               2         First time derivative of ED 2nd tower side-to-side bending mode DOF (internal DOF index = DOF_TSS2), m/s
          9    1.042E+00                                 F               2         First time derivative of ED Variable speed generator DOF (internal DOF index = DOF_GeAz), rad/s
         10   -3.043E-04                                 F               2         First time derivative of ED First time derivative of Platform horizontal surge translation DOF (internal DOF index = DOF_Sg), m/s/s
         11    1.410E-03                                 F               2         First time derivative of ED First time derivative of Platform vertical heave translation DOF (internal DOF index = DOF_Hv), m/s/s
         12   -4.546E-05                                 F               2         First time derivative of ED First time derivative of Platform roll tilt rotation DOF (internal DOF index = DOF_R), rad/s/s
         13   -1.502E-05                                 F               2         First time derivative of ED First time derivative of Platform pitch tilt rotation DOF (internal DOF index = DOF_P), rad/s/s
         14    5.345E-03                                 F               2         First time derivative of ED First time derivative of 1st tower fore-aft bending mode DOF (internal DOF index = DOF_TFA1), m/s/s
         15    2.179E-03                                 F               2         First time derivative of ED First time derivative of 1st tower side-to-side bending mode DOF (internal DOF index = DOF_TSS1), m/s/s
         16    3.312E-05                                 F               2         First time derivative of ED First time derivative of 2nd tower fore-aft bending mode DOF (internal DOF index = DOF_TFA2), m/s/s
         17   -3.245E-07                                 F               2         First time derivative of ED First time derivative of 2nd tower side-to-side bending mode DOF (internal DOF index = DOF_TSS2), m/s/s
         18   -1.489E-04                                 F               2         First time derivative of ED First time derivative of Variable speed generator DOF (internal DOF index = DOF_GeAz), rad/s/s

Order of inputs:
     Column   Operating Point                     Rotating Frame? Derivative Order Description
   ---------- ---------------                     --------------- ---------------- -----------
          1   -1.080E+01                                 F               0         IfW X-component position of node 1 (hub), m
          2    0.000E+00                                 F               0         IfW Y-component position of node 1 (hub), m
          3    1.497E+02                                 F               0         IfW Z-component position of node 1 (hub), m
          4    2.724E+01                                 F               0         IfW X-component position of node 2 (blade 1, node 1), m
          5   -5.952E+00                                 F               0         IfW Y-component position of node 2 (blade 1, node 1), m
          6    1.542E+02                                 F               0         IfW Z-component position of node 2 (blade 1, node 1), m
          7    2.758E+01                                 F               0         IfW X-component position of node 3 (blade 1, node 2), m
          8   -5.518E+00                                 F               0         IfW Y-component position of node 3 (blade 1, node 2), m
          9    1.554E+02                                 F               0         IfW Z-component position of node 3 (blade 1, node 2), m
         10    3.218E+01                                 F               0         IfW X-component position of node 4 (blade 1, node 3), m
         11    3.830E-01                                 F               0         IfW Y-component position of node 4 (blade 1, node 3), m
         12    1.719E+02                                 F               0         IfW Z-component position of node 4 (blade 1, node 3), m
         13    3.316E+01                                 F               0         IfW X-component position of node 5 (blade 1, node 4), m
         14    1.640E+00                                 F               0         IfW Y-component position of node 5 (blade 1, node 4), m
         15    1.755E+02                                 F               0         IfW Z-component position of node 5 (blade 1, node 4), m
         16    3.414E+01                                 F               0         IfW X-component position of node 6 (blade 1, node 5), m
         17    2.898E+00                                 F               0         IfW Y-component position of node 6 (blade 1, node 5), m
         18    1.790E+02                                 F               0         IfW Z-component position of node 6 (blade 1, node 5), m
         19    3.512E+01                                 F               0         IfW X-component position of node 7 (blade 1, node 6), m
         20    4.155E+00                                 F               0         IfW Y-component position of node 7 (blade 1, node 6), m
         21    1.825E+02                                 F               0         IfW Z-component position of node 7 (blade 1, node 6), m
         22    3.610E+01                                 F               0         IfW X-component position of node 8 (blade 1, node 7), m
         23    5.412E+00                                 F               0         IfW Y-component position of node 8 (blade 1, node 7), m
         24    1.860E+02                                 F               0         IfW Z-component position of node 8 (blade 1, node 7), m
         25    3.708E+01                                 F               0         IfW X-component position of node 9 (blade 1, node 8), m
         26    6.670E+00                                 F               0         IfW Y-component position of node 9 (blade 1, node 8), m
         27    1.896E+02                                 F               0         IfW Z-component position of node 9 (blade 1, node 8), m
         28    3.806E+01                                 F               0         IfW X-component position of node 10 (blade 1, node 9), m
         29    7.927E+00                                 F               0         IfW Y-component position of node 10 (blade 1, node 9), m
         30    1.931E+02                                 F               0         IfW Z-component position of node 10 (blade 1, node 9), m
         31    3.904E+01                                 F               0         IfW X-component position of node 11 (blade 1, node 10), m
         32    9.184E+00                                 F               0         IfW Y-component position of node 11 (blade 1, node 10), m
         33    1.966E+02                                 F               0         IfW Z-component position of node 11 (blade 1, node 10), m
         34    4.002E+01                                 F               0         IfW X-component position of node 12 (blade 1, node 11), m
         35    1.044E+01                                 F               0         IfW Y-component position of node 12 (blade 1, node 11), m
         36    2.001E+02                                 F               0         IfW Z-component position of node 12 (blade 1, node 11), m
         37    4.100E+01                                 F               0         IfW X-component position of node 13 (blade 1, node 12), m
         38    1.170E+01                                 F               0         IfW Y-component position of node 13 (blade 1, node 12), m
         39    2.037E+02                                 F               0         IfW Z-component position of node 13 (blade 1, node 12), m
         40    4.198E+01                                 F               0         IfW X-component position of node 14 (blade 1, node 13), m
         41    1.296E+01                                 F               0         IfW Y-component position of node 14 (blade 1, node 13), m
         42    2.072E+02                                 F               0         IfW Z-component position of node 14 (blade 1, node 13), m
         43    4.296E+01                                 F               0         IfW X-component position of node 15 (blade 1, node 14), m
         44    1.421E+01                                 F               0         IfW Y-component position of node 15 (blade 1, node 14), m
         45    2.107E+02                                 F               0         IfW Z-component position of node 15 (blade 1, node 14), m
         46    4.394E+01                                 F               0         IfW X-component position of node 16 (blade 1, node 15), m
         47    1.547E+01                                 F               0         IfW Y-component position of node 16 (blade 1, node 15), m
         48    2.142E+02                                 F               0         IfW Z-component position of node 16 (blade 1, node 15), m
         49    4.492E+01                                 F               0         IfW X-component position of node 17 (blade 1, node 16), m
         50    1.673E+01                                 F               0         IfW Y-component position of node 17 (blade 1, node 16), m
         51    2.178E+02                                 F               0         IfW Z-component position of node 17 (blade 1, node 16), m
         52    4.590E+01                                 F               0         IfW X-component position of node 18 (blade 1, node 17), m
         53    1.799E+01                                 F               0         IfW Y-component position of node 18 (blade 1, node 17), m
         54    2.213E+02                                 F               0         IfW Z-component position of node 18 (blade 1, node 17), m
         55    4.688E+01                                 F               0         IfW X-component position of node 19 (blade 1, node 18), m
         56    1.924E+01                                 F               0         IfW Y-component position of node 19 (blade 1, node 18), m
         57    2.248E+02                                 F               0         IfW Z-component position of node 19 (blade 1, node 18), m
         58    4.786E+01                                 F               0         IfW X-component position of node 20 (blade 1, node 19), m
         59    2.050E+01                                 F               0         IfW Y-component position of node 20 (blade 1, node 19), m
         60    2.283E+02                                 F               0         IfW Z-component position of node 20 (blade 1, node 19), m
         61    4.884E+01                                 F               0         IfW X-component position of node 21 (blade 1, node 20), m
         62    2.176E+01                                 F               0         IfW Y-component position of node 21 (blade 1, node 20), m
         63    2.319E+02                                 F               0         IfW Z-component position of node 21 (blade 1, node 20), m
         64    4.982E+01                                 F               0         IfW X-component position of node 22 (blade 1, node 21), m
         65    2.301E+01                                 F               0         IfW Y-component position of node 22 (blade 1, node 21), m
         66    2.354E+02                                 F               0         IfW Z-component position of node 22 (blade 1, node 21), m
         67    5.080E+01                                 F               0         IfW X-component position of node 23 (blade 1, node 22), m
         68    2.427E+01                                 F               0         IfW Y-component position of node 23 (blade 1, node 22), m
         69    2.389E+02                                 F               0         IfW Z-component position of node 23 (blade 1, node 22), m
         70    5.178E+01                                 F               0         IfW X-component position of node 24 (blade 1, node 23), m
         71    2.553E+01                                 F               0         IfW Y-component position of node 24 (blade 1, node 23), m
         72    2.424E+02                                 F               0         IfW Z-component position of node 24 (blade 1, node 23), m
         73    5.276E+01                                 F               0         IfW X-component position of node 25 (blade 1, node 24), m
         74    2.679E+01                                 F               0         IfW Y-component position of node 25 (blade 1, node 24), m
         75    2.459E+02                                 F               0         IfW Z-component position of node 25 (blade 1, node 24), m
         76    5.374E+01                                 F               0         IfW X-component position of node 26 (blade 1, node 25), m
         77    2.804E+01                                 F               0         IfW Y-component position of node 26 (blade 1, node 25), m
         78    2.495E+02                                 F               0         IfW Z-component position of node 26 (blade 1, node 25), m
         79    5.472E+01                                 F               0         IfW X-component position of node 27 (blade 1, node 26), m
         80    2.930E+01                                 F               0         IfW Y-component position of node 27 (blade 1, node 26), m
         81    2.530E+02                                 F               0         IfW Z-component position of node 27 (blade 1, node 26), m
         82    5.570E+01                                 F               0         IfW X-component position of node 28 (blade 1, node 27), m
         83    3.056E+01                                 F               0         IfW Y-component position of node 28 (blade 1, node 27), m
         84    2.565E+02                                 F               0         IfW Z-component position of node 28 (blade 1, node 27), m
         85    5.653E+01                                 F               0         IfW X-component position of node 29 (blade 1, node 28), m
         86    3.162E+01                                 F               0         IfW Y-component position of node 29 (blade 1, node 28), m
         87    2.595E+02                                 F               0         IfW Z-component position of node 29 (blade 1, node 28), m
         88    2.556E+01                                 F               0         IfW X-component position of node 30 (blade 2, node 1), m
         89   -1.319E+01                                 F               0         IfW Y-component position of node 30 (blade 2, node 1), m
         90    1.481E+02                                 F               0         IfW Z-component position of node 30 (blade 2, node 1), m
         91    2.550E+01                                 F               0         IfW X-component position of node 31 (blade 2, node 2), m
         92   -1.450E+01                                 F               0         IfW Y-component position of node 31 (blade 2, node 2), m
         93    1.479E+02                                 F               0         IfW Z-component position of node 31 (blade 2, node 2), m
         94    2.460E+01                                 F               0         IfW X-component position of node 32 (blade 2, node 3), m
         95   -3.232E+01                                 F               0         IfW Y-component position of node 32 (blade 2, node 3), m
         96    1.445E+02                                 F               0         IfW Z-component position of node 32 (blade 2, node 3), m
         97    2.441E+01                                 F               0         IfW X-component position of node 33 (blade 2, node 4), m
         98   -3.611E+01                                 F               0         IfW Y-component position of node 33 (blade 2, node 4), m
         99    1.438E+02                                 F               0         IfW Z-component position of node 33 (blade 2, node 4), m
        100    2.422E+01                                 F               0         IfW X-component position of node 34 (blade 2, node 5), m
        101   -3.991E+01                                 F               0         IfW Y-component position of node 34 (blade 2, node 5), m
        102    1.431E+02                                 F               0         IfW Z-component position of node 34 (blade 2, node 5), m
        103    2.403E+01                                 F               0         IfW X-component position of node 35 (blade 2, node 6), m
        104   -4.371E+01                                 F               0         IfW Y-component position of node 35 (blade 2, node 6), m
        105    1.424E+02                                 F               0         IfW Z-component position of node 35 (blade 2, node 6), m
        106    2.384E+01                                 F               0         IfW X-component position of node 36 (blade 2, node 7), m
        107   -4.750E+01                                 F               0         IfW Y-component position of node 36 (blade 2, node 7), m
        108    1.417E+02                                 F               0         IfW Z-component position of node 36 (blade 2, node 7), m
        109    2.365E+01                                 F               0         IfW X-component position of node 37 (blade 2, node 8), m
        110   -5.130E+01                                 F               0         IfW Y-component position of node 37 (blade 2, node 8), m
        111    1.409E+02                                 F               0         IfW Z-component position of node 37 (blade 2, node 8), m
        112    2.346E+01                                 F               0         IfW X-component position of node 38 (blade 2, node 9), m
        113   -5.510E+01                                 F               0         IfW Y-component position of node 38 (blade 2, node 9), m
        114    1.402E+02                                 F               0         IfW Z-component position of node 38 (blade 2, node 9), m
        115    2.327E+01                                 F               0         IfW X-component position of node 39 (blade 2, node 10), m
        116   -5.889E+01                                 F               0         IfW Y-component position of node 39 (blade 2, node 10), m
        117    1.395E+02                                 F               0         IfW Z-component position of node 39 (blade 2, node 10), m
        118    2.308E+01                                 F               0         IfW X-component position of node 40 (blade 2, node 11), m
        119   -6.269E+01                                 F               0         IfW Y-component position of node 40 (blade 2, node 11), m
        120    1.388E+02                                 F               0         IfW Z-component position of node 40 (blade 2, node 11), m
        121    2.289E+01                                 F               0         IfW X-component position of node 41 (blade 2, node 12), m
        122   -6.648E+01                                 F               0         IfW Y-component position of node 41 (blade 2, node 12), m
        123    1.381E+02                                 F               0         IfW Z-component position of node 41 (blade 2, node 12), m
        124    2.270E+01                                 F               0         IfW X-component position of node 42 (blade 2, node 13), m
        125   -7.028E+01                                 F               0         IfW Y-component position of node 42 (blade 2, node 13), m
        126    1.374E+02                                 F               0         IfW Z-component position of node 42 (blade 2, node 13), m
        127    2.251E+01                                 F               0         IfW X-component position of node 43 (blade 2, node 14), m
        128   -7.408E+01                                 F               0         IfW Y-component position of node 43 (blade 2, node 14), m
        129    1.366E+02                                 F               0         IfW Z-component position of node 43 (blade 2, node 14), m
        130    2.231E+01                                 F               0         IfW X-component position of node 44 (blade 2, node 15), m
        131   -7.787E+01                                 F               0         IfW Y-component position of node 44 (blade 2, node 15), m
        132    1.359E+02                                 F               0         IfW Z-component position of node 44 (blade 2, node 15), m
        133    2.212E+01                                 F               0         IfW X-component position of node 45 (blade 2, node 16), m
        134   -8.167E+01                                 F               0         IfW Y-component position of node 45 (blade 2, node 16), m
        135    1.352E+02                                 F               0         IfW Z-component position of node 45 (blade 2, node 16), m
        136    2.193E+01                                 F               0         IfW X-component position of node 46 (blade 2, node 17), m
        137   -8.547E+01                                 F               0         IfW Y-component position of node 46 (blade 2, node 17), m
        138    1.345E+02                                 F               0         IfW Z-component position of node 46 (blade 2, node 17), m
        139    2.174E+01                                 F               0         IfW X-component position of node 47 (blade 2, node 18), m
        140   -8.926E+01                                 F               0         IfW Y-component position of node 47 (blade 2, node 18), m
        141    1.338E+02                                 F               0         IfW Z-component position of node 47 (blade 2, node 18), m
        142    2.155E+01                                 F               0         IfW X-component position of node 48 (blade 2, node 19), m
        143   -9.306E+01                                 F               0         IfW Y-component position of node 48 (blade 2, node 19), m
        144    1.331E+02                                 F               0         IfW Z-component position of node 48 (blade 2, node 19), m
        145    2.136E+01                                 F               0         IfW X-component position of node 49 (blade 2, node 20), m
        146   -9.685E+01                                 F               0         IfW Y-component position of node 49 (blade 2, node 20), m
        147    1.324E+02                                 F               0         IfW Z-component position of node 49 (blade 2, node 20), m
        148    2.117E+01                                 F               0         IfW X-component position of node 50 (blade 2, node 21), m
        149   -1.007E+02                                 F               0         IfW Y-component position of node 50 (blade 2, node 21), m
        150    1.316E+02                                 F               0         IfW Z-component position of node 50 (blade 2, node 21), m
        151    2.098E+01                                 F               0         IfW X-component position of node 51 (blade 2, node 22), m
        152   -1.044E+02                                 F               0         IfW Y-component position of node 51 (blade 2, node 22), m
        153    1.309E+02                                 F               0         IfW Z-component position of node 51 (blade 2, node 22), m
        154    2.079E+01                                 F               0         IfW X-component position of node 52 (blade 2, node 23), m
        155   -1.082E+02                                 F               0         IfW Y-component position of node 52 (blade 2, node 23), m