
Linearized model: Predictions were generated on 06-Feb-2024 at 16:18:08 using OpenFAST, compiled as a 64-bit application using single precision at commit v3.5.1
 linked with  NWTC Subroutine Library; ElastoDyn; InflowWind; AeroDyn; ServoDyn; HydroDyn; MAP++ (<1.20.10>, <Oct-20-2023>)

Description from the FAST input file: CCT-9 Campign 4 model. Input files to be run with OpenFAST 3.5.0. GitHub branch from Lu Wang (https://github.com/luwang00/openfast/tree/dev) compiled on March 7, 2023.

Simulation information:
   Simulation time:                  1003.5000 s
   Rotor Speed:                         1.0420 rad/s
   Azimuth:                             5.1475 rad
   Wind Speed:                         12.0000 m/s
   Number of continuous states:        18
   Number of discrete states:           0
   Number of constraint states:         0
   Number of inputs:                 3988
   Number of outputs:                  36
   Jacobians included in this file?    No

Order of continuous states:
   Row/Column Operating Point                     Rotating Frame? Derivative Order Description
   ---------- ---------------                     --------------- ---------------- -----------
          1    1.231E+01                                 F               2         ED Platform horizontal surge translation DOF (internal DOF index = DOF_Sg), m
          2   -2.578E-01                                 F               2         ED Platform vertical heave translation DOF (internal DOF index = DOF_Hv), m
          3    4.697E-02                                 F               2         ED Platform roll tilt rotation DOF (internal DOF index = DOF_R), rad
          4    1.559E-01                                 F               2         ED Platform pitch tilt rotation DOF (internal DOF index = DOF_P), rad
          5    1.080E+00                                 F               2         ED 1st tower fore-aft bending mode DOF (internal DOF index = DOF_TFA1), m
          6    1.743E-01                                 F               2         ED 1st tower side-to-side bending mode DOF (internal DOF index = DOF_TSS1), m
          7    1.613E-03                                 F               2         ED 2nd tower fore-aft bending mode DOF (internal DOF index = DOF_TFA2), m
          8    7.993E-05                                 F               2         ED 2nd tower side-to-side bending mode DOF (internal DOF index = DOF_TSS2), m
          9    3.577E+00                                 F               2         ED Variable speed generator DOF (internal DOF index = DOF_GeAz), rad
         10    5.083E-05                                 F               2         ED First time derivative of Platform horizontal surge translation DOF (internal DOF index = DOF_Sg), m/s
         11    1.092E-03                                 F               2         ED First time derivative of Platform vertical heave translation DOF (internal DOF index = DOF_Hv), m/s
         12    2.628E-05                                 F               2         ED First time derivative of Platform roll tilt rotation DOF (internal DOF index = DOF_R), rad/s
         13   -1.280E-06                                 F               2         ED First time derivative of Platform pitch tilt rotation DOF (internal DOF index = DOF_P), rad/s
         14   -1.420E-03                                 F               2         ED First time derivative of 1st tower fore-aft bending mode DOF (internal DOF index = DOF_TFA1), m/s
         15   -1.168E-03                                 F               2         ED First time derivative of 1st tower side-to-side bending mode DOF (internal DOF index = DOF_TSS1), m/s
         16   -1.382E-05                                 F               2         ED First time derivative of 2nd tower fore-aft bending mode DOF (internal DOF index = DOF_TFA2), m/s
         17    1.971E-06                                 F               2         ED First time derivative of 2nd tower side-to-side bending mode DOF (internal DOF index = DOF_TSS2), m/s
         18    1.042E+00                                 F               2         ED First time derivative of Variable speed generator DOF (internal DOF index = DOF_GeAz), rad/s

Order of continuous state derivatives:
   Row/Column Operating Point                     Rotating Frame? Derivative Order Description
   ---------- ---------------                     --------------- ---------------- -----------
          1    5.083E-05                                 F               2         First time derivative of ED Platform horizontal surge translation DOF (internal DOF index = DOF_Sg), m/s
          2    1.092E-03                                 F               2         First time derivative of ED Platform vertical heave translation DOF (internal DOF index = DOF_Hv), m/s
          3    2.628E-05                                 F               2         First time derivative of ED Platform roll tilt rotation DOF (internal DOF index = DOF_R), rad/s
          4   -1.280E-06                                 F               2         First time derivative of ED Platform pitch tilt rotation DOF (internal DOF index = DOF_P), rad/s
          5   -1.420E-03                                 F               2         First time derivative of ED 1st tower fore-aft bending mode DOF (internal DOF index = DOF_TFA1), m/s
          6   -1.168E-03                                 F               2         First time derivative of ED 1st tower side-to-side bending mode DOF (internal DOF index = DOF_TSS1), m/s
          7   -1.382E-05                                 F               2         First time derivative of ED 2nd tower fore-aft bending mode DOF (internal DOF index = DOF_TFA2), m/s
          8    1.971E-06                                 F               2         First time derivative of ED 2nd tower side-to-side bending mode DOF (internal DOF index = DOF_TSS2), m/s
          9    1.042E+00                                 F               2         First time derivative of ED Variable speed generator DOF (internal DOF index = DOF_GeAz), rad/s
         10    2.431E-05                                 F               2         First time derivative of ED First time derivative of Platform horizontal surge translation DOF (internal DOF index = DOF_Sg), m/s/s
         11    1.272E-03                                 F               2         First time derivative of ED First time derivative of Platform vertical heave translation DOF (internal DOF index = DOF_Hv), m/s/s
         12   -3.394E-05                                 F               2         First time derivative of ED First time derivative of Platform roll tilt rotation DOF (internal DOF index = DOF_R), rad/s/s
         13    2.829E-06                                 F               2         First time derivative of ED First time derivative of Platform pitch tilt rotation DOF (internal DOF index = DOF_P), rad/s/s
         14   -9.790E-04                                 F               2         First time derivative of ED First time derivative of 1st tower fore-aft bending mode DOF (internal DOF index = DOF_TFA1), m/s/s
         15    9.813E-04                                 F               2         First time derivative of ED First time derivative of 1st tower side-to-side bending mode DOF (internal DOF index = DOF_TSS1), m/s/s
         16   -2.084E-05                                 F               2         First time derivative of ED First time derivative of 2nd tower fore-aft bending mode DOF (internal DOF index = DOF_TFA2), m/s/s
         17   -7.333E-06                                 F               2         First time derivative of ED First time derivative of 2nd tower side-to-side bending mode DOF (internal DOF index = DOF_TSS2), m/s/s
         18   -1.131E-04                                 F               2         First time derivative of ED First time derivative of Variable speed generator DOF (internal DOF index = DOF_GeAz), rad/s/s

Order of inputs:
     Column   Operating Point                     Rotating Frame? Derivative Order Description
   ---------- ---------------                     --------------- ---------------- -----------
          1   -1.080E+01                                 F               0         IfW X-component position of node 1 (hub), m
          2    0.000E+00                                 F               0         IfW Y-component position of node 1 (hub), m
          3    1.497E+02                                 F               0         IfW Z-component position of node 1 (hub), m
          4    2.652E+01                                 F               0         IfW X-component position of node 2 (blade 1, node 1), m
          5   -2.849E+00                                 F               0         IfW Y-component position of node 2 (blade 1, node 1), m
          6    1.516E+02                                 F               0         IfW Z-component position of node 2 (blade 1, node 1), m
          7    2.668E+01                                 F               0         IfW X-component position of node 3 (blade 1, node 2), m
          8   -1.668E+00                                 F               0         IfW Y-component position of node 3 (blade 1, node 2), m
          9    1.522E+02                                 F               0         IfW Z-component position of node 3 (blade 1, node 2), m
         10    2.892E+01                                 F               0         IfW X-component position of node 4 (blade 1, node 3), m
         11    1.440E+01                                 F               0         IfW Y-component position of node 4 (blade 1, node 3), m
         12    1.604E+02                                 F               0         IfW Z-component position of node 4 (blade 1, node 3), m
         13    2.940E+01                                 F               0         IfW X-component position of node 5 (blade 1, node 4), m
         14    1.782E+01                                 F               0         IfW Y-component position of node 5 (blade 1, node 4), m
         15    1.621E+02                                 F               0         IfW Z-component position of node 5 (blade 1, node 4), m
         16    2.987E+01                                 F               0         IfW X-component position of node 6 (blade 1, node 5), m
         17    2.124E+01                                 F               0         IfW Y-component position of node 6 (blade 1, node 5), m
         18    1.638E+02                                 F               0         IfW Z-component position of node 6 (blade 1, node 5), m
         19    3.035E+01                                 F               0         IfW X-component position of node 7 (blade 1, node 6), m
         20    2.467E+01                                 F               0         IfW Y-component position of node 7 (blade 1, node 6), m
         21    1.656E+02                                 F               0         IfW Z-component position of node 7 (blade 1, node 6), m
         22    3.083E+01                                 F               0         IfW X-component position of node 8 (blade 1, node 7), m
         23    2.809E+01                                 F               0         IfW Y-component position of node 8 (blade 1, node 7), m
         24    1.673E+02                                 F               0         IfW Z-component position of node 8 (blade 1, node 7), m
         25    3.130E+01                                 F               0         IfW X-component position of node 9 (blade 1, node 8), m
         26    3.151E+01                                 F               0         IfW Y-component position of node 9 (blade 1, node 8), m
         27    1.691E+02                                 F               0         IfW Z-component position of node 9 (blade 1, node 8), m
         28    3.178E+01                                 F               0         IfW X-component position of node 10 (blade 1, node 9), m
         29    3.494E+01                                 F               0         IfW Y-component position of node 10 (blade 1, node 9), m
         30    1.708E+02                                 F               0         IfW Z-component position of node 10 (blade 1, node 9), m
         31    3.225E+01                                 F               0         IfW X-component position of node 11 (blade 1, node 10), m
         32    3.836E+01                                 F               0         IfW Y-component position of node 11 (blade 1, node 10), m
         33    1.725E+02                                 F               0         IfW Z-component position of node 11 (blade 1, node 10), m
         34    3.273E+01                                 F               0         IfW X-component position of node 12 (blade 1, node 11), m
         35    4.178E+01                                 F               0         IfW Y-component position of node 12 (blade 1, node 11), m
         36    1.743E+02                                 F               0         IfW Z-component position of node 12 (blade 1, node 11), m
         37    3.321E+01                                 F               0         IfW X-component position of node 13 (blade 1, node 12), m
         38    4.520E+01                                 F               0         IfW Y-component position of node 13 (blade 1, node 12), m
         39    1.760E+02                                 F               0         IfW Z-component position of node 13 (blade 1, node 12), m
         40    3.368E+01                                 F               0         IfW X-component position of node 14 (blade 1, node 13), m
         41    4.863E+01                                 F               0         IfW Y-component position of node 14 (blade 1, node 13), m
         42    1.777E+02                                 F               0         IfW Z-component position of node 14 (blade 1, node 13), m
         43    3.416E+01                                 F               0         IfW X-component position of node 15 (blade 1, node 14), m
         44    5.205E+01                                 F               0         IfW Y-component position of node 15 (blade 1, node 14), m
         45    1.795E+02                                 F               0         IfW Z-component position of node 15 (blade 1, node 14), m
         46    3.464E+01                                 F               0         IfW X-component position of node 16 (blade 1, node 15), m
         47    5.547E+01                                 F               0         IfW Y-component position of node 16 (blade 1, node 15), m
         48    1.812E+02                                 F               0         IfW Z-component position of node 16 (blade 1, node 15), m
         49    3.511E+01                                 F               0         IfW X-component position of node 17 (blade 1, node 16), m
         50    5.890E+01                                 F               0         IfW Y-component position of node 17 (blade 1, node 16), m
         51    1.830E+02                                 F               0         IfW Z-component position of node 17 (blade 1, node 16), m
         52    3.559E+01                                 F               0         IfW X-component position of node 18 (blade 1, node 17), m
         53    6.232E+01                                 F               0         IfW Y-component position of node 18 (blade 1, node 17), m
         54    1.847E+02                                 F               0         IfW Z-component position of node 18 (blade 1, node 17), m
         55    3.607E+01                                 F               0         IfW X-component position of node 19 (blade 1, node 18), m
         56    6.574E+01                                 F               0         IfW Y-component position of node 19 (blade 1, node 18), m
         57    1.864E+02                                 F               0         IfW Z-component position of node 19 (blade 1, node 18), m
         58    3.654E+01                                 F               0         IfW X-component position of node 20 (blade 1, node 19), m
         59    6.917E+01                                 F               0         IfW Y-component position of node 20 (blade 1, node 19), m
         60    1.882E+02                                 F               0         IfW Z-component position of node 20 (blade 1, node 19), m
         61    3.702E+01                                 F               0         IfW X-component position of node 21 (blade 1, node 20), m
         62    7.259E+01                                 F               0         IfW Y-component position of node 21 (blade 1, node 20), m
         63    1.899E+02                                 F               0         IfW Z-component position of node 21 (blade 1, node 20), m
         64    3.750E+01                                 F               0         IfW X-component position of node 22 (blade 1, node 21), m
         65    7.601E+01                                 F               0         IfW Y-component position of node 22 (blade 1, node 21), m
         66    1.916E+02                                 F               0         IfW Z-component position of node 22 (blade 1, node 21), m
         67    3.797E+01                                 F               0         IfW X-component position of node 23 (blade 1, node 22), m
         68    7.943E+01                                 F               0         IfW Y-component position of node 23 (blade 1, node 22), m
         69    1.934E+02                                 F               0         IfW Z-component position of node 23 (blade 1, node 22), m
         70    3.845E+01                                 F               0         IfW X-component position of node 24 (blade 1, node 23), m
         71    8.286E+01                                 F               0         IfW Y-component position of node 24 (blade 1, node 23), m
         72    1.951E+02                                 F               0         IfW Z-component position of node 24 (blade 1, node 23), m
         73    3.892E+01                                 F               0         IfW X-component position of node 25 (blade 1, node 24), m
         74    8.628E+01                                 F               0         IfW Y-component position of node 25 (blade 1, node 24), m
         75    1.968E+02                                 F               0         IfW Z-component position of node 25 (blade 1, node 24), m
         76    3.940E+01                                 F               0         IfW X-component position of node 26 (blade 1, node 25), m
         77    8.970E+01                                 F               0         IfW Y-component position of node 26 (blade 1, node 25), m
         78    1.986E+02                                 F               0         IfW Z-component position of node 26 (blade 1, node 25), m
         79    3.988E+01                                 F               0         IfW X-component position of node 27 (blade 1, node 26), m
         80    9.313E+01                                 F               0         IfW Y-component position of node 27 (blade 1, node 26), m
         81    2.003E+02                                 F               0         IfW Z-component position of node 27 (blade 1, node 26), m
         82    4.035E+01                                 F               0         IfW X-component position of node 28 (blade 1, node 27), m
         83    9.655E+01                                 F               0         IfW Y-component position of node 28 (blade 1, node 27), m
         84    2.021E+02                                 F               0         IfW Z-component position of node 28 (blade 1, node 27), m
         85    4.076E+01                                 F               0         IfW X-component position of node 29 (blade 1, node 28), m
         86    9.945E+01                                 F               0         IfW Y-component position of node 29 (blade 1, node 28), m
         87    2.035E+02                                 F               0         IfW Z-component position of node 29 (blade 1, node 28), m
         88    2.664E+01                                 F               0         IfW X-component position of node 30 (blade 2, node 1), m
         89   -1.244E+01                                 F               0         IfW Y-component position of node 30 (blade 2, node 1), m
         90    1.520E+02                                 F               0         IfW Z-component position of node 30 (blade 2, node 1), m
         91    2.684E+01                                 F               0         IfW X-component position of node 31 (blade 2, node 2), m
         92   -1.357E+01                                 F               0         IfW Y-component position of node 31 (blade 2, node 2), m
         93    1.527E+02                                 F               0         IfW Z-component position of node 31 (blade 2, node 2), m
         94    2.947E+01                                 F               0         IfW X-component position of node 32 (blade 2, node 3), m
         95   -2.892E+01                                 F               0         IfW Y-component position of node 32 (blade 2, node 3), m
         96    1.620E+02                                 F               0         IfW Z-component position of node 32 (blade 2, node 3), m
         97    3.003E+01                                 F               0         IfW X-component position of node 33 (blade 2, node 4), m
         98   -3.219E+01                                 F               0         IfW Y-component position of node 33 (blade 2, node 4), m
         99    1.640E+02                                 F               0         IfW Z-component position of node 33 (blade 2, node 4), m
        100    3.059E+01                                 F               0         IfW X-component position of node 34 (blade 2, node 5), m
        101   -3.546E+01                                 F               0         IfW Y-component position of node 34 (blade 2, node 5), m
        102    1.660E+02                                 F               0         IfW Z-component position of node 34 (blade 2, node 5), m
        103    3.116E+01                                 F               0         IfW X-component position of node 35 (blade 2, node 6), m
        104   -3.873E+01                                 F               0         IfW Y-component position of node 35 (blade 2, node 6), m
        105    1.680E+02                                 F               0         IfW Z-component position of node 35 (blade 2, node 6), m
        106    3.172E+01                                 F               0         IfW X-component position of node 36 (blade 2, node 7), m
        107   -4.200E+01                                 F               0         IfW Y-component position of node 36 (blade 2, node 7), m
        108    1.699E+02                                 F               0         IfW Z-component position of node 36 (blade 2, node 7), m
        109    3.228E+01                                 F               0         IfW X-component position of node 37 (blade 2, node 8), m
        110   -4.527E+01                                 F               0         IfW Y-component position of node 37 (blade 2, node 8), m
        111    1.719E+02                                 F               0         IfW Z-component position of node 37 (blade 2, node 8), m
        112    3.284E+01                                 F               0         IfW X-component position of node 38 (blade 2, node 9), m
        113   -4.854E+01                                 F               0         IfW Y-component position of node 38 (blade 2, node 9), m
        114    1.739E+02                                 F               0         IfW Z-component position of node 38 (blade 2, node 9), m
        115    3.340E+01                                 F               0         IfW X-component position of node 39 (blade 2, node 10), m
        116   -5.181E+01                                 F               0         IfW Y-component position of node 39 (blade 2, node 10), m
        117    1.759E+02                                 F               0         IfW Z-component position of node 39 (blade 2, node 10), m
        118    3.396E+01                                 F               0         IfW X-component position of node 40 (blade 2, node 11), m
        119   -5.508E+01                                 F               0         IfW Y-component position of node 40 (blade 2, node 11), m
        120    1.779E+02                                 F               0         IfW Z-component position of node 40 (blade 2, node 11), m
        121    3.453E+01                                 F               0         IfW X-component position of node 41 (blade 2, node 12), m
        122   -5.836E+01                                 F               0         IfW Y-component position of node 41 (blade 2, node 12), m
        123    1.799E+02                                 F               0         IfW Z-component position of node 41 (blade 2, node 12), m
        124    3.509E+01                                 F               0         IfW X-component position of node 42 (blade 2, node 13), m
        125   -6.163E+01                                 F               0         IfW Y-component position of node 42 (blade 2, node 13), m
        126    1.819E+02                                 F               0         IfW Z-component position of node 42 (blade 2, node 13), m
        127    3.565E+01                                 F               0         IfW X-component position of node 43 (blade 2, node 14), m
        128   -6.490E+01                                 F               0         IfW Y-component position of node 43 (blade 2, node 14), m
        129    1.838E+02                                 F               0         IfW Z-component position of node 43 (blade 2, node 14), m
        130    3.621E+01                                 F               0         IfW X-component position of node 44 (blade 2, node 15), m
        131   -6.817E+01                                 F               0         IfW Y-component position of node 44 (blade 2, node 15), m
        132    1.858E+02                                 F               0         IfW Z-component position of node 44 (blade 2, node 15), m
        133    3.677E+01                                 F               0         IfW X-component position of node 45 (blade 2, node 16), m
        134   -7.144E+01                                 F               0         IfW Y-component position of node 45 (blade 2, node 16), m
        135    1.878E+02                                 F               0         IfW Z-component position of node 45 (blade 2, node 16), m
        136    3.733E+01                                 F               0         IfW X-component position of node 46 (blade 2, node 17), m
        137   -7.471E+01                                 F               0         IfW Y-component position of node 46 (blade 2, node 17), m
        138    1.898E+02                                 F               0         IfW Z-component position of node 46 (blade 2, node 17), m
        139    3.789E+01                                 F               0         IfW X-component position of node 47 (blade 2, node 18), m
        140   -7.798E+01                                 F               0         IfW Y-component position of node 47 (blade 2, node 18), m
        141    1.918E+02                                 F               0         IfW Z-component position of node 47 (blade 2, node 18), m
        142    3.846E+01                                 F               0         IfW X-component position of node 48 (blade 2, node 19), m
        143   -8.125E+01                                 F               0         IfW Y-component position of node 48 (blade 2, node 19), m
        144    1.938E+02                                 F               0         IfW Z-component position of node 48 (blade 2, node 19), m
        145    3.902E+01                                 F               0         IfW X-component position of node 49 (blade 2, node 20), m
        146   -8.452E+01                                 F               0         IfW Y-component position of node 49 (blade 2, node 20), m
        147    1.958E+02                                 F               0         IfW Z-component position of node 49 (blade 2, node 20), m
        148    3.958E+01                                 F               0         IfW X-component position of node 50 (blade 2, node 21), m
        149   -8.779E+01                                 F               0         IfW Y-component position of node 50 (blade 2, node 21), m
        150    1.977E+02                                 F               0         IfW Z-component position of node 50 (blade 2, node 21), m
        151    4.014E+01                                 F               0         IfW X-component position of node 51 (blade 2, node 22), m
        152   -9.106E+01                                 F               0         IfW Y-component position of node 51 (blade 2, node 22), m
        153    1.997E+02                                 F               0         IfW Z-component position of node 51 (blade 2, node 22), m
        154    4.070E+01                                 F               0         IfW X-component position of node 52 (blade 2, node 23), m
        155   -9.433E+01                                 F               0         IfW Y-component position of node 52 (blade 2, node 23), m