
Linearized model: Predictions were generated on 31-Jan-2024 at 12:35:17 using OpenFAST, compiled as a 64-bit application using single precision at commit v3.5.1
 linked with  NWTC Subroutine Library; ElastoDyn; InflowWind; AeroDyn; ServoDyn; HydroDyn; MAP++ (<1.20.10>, <Oct-20-2023>)

Description from the FAST input file: CCT-9 Campign 4 model. Input files to be run with OpenFAST 3.5.0. GitHub branch from Lu Wang (https://github.com/luwang00/openfast/tree/dev) compiled on March 7, 2023.

Simulation information:
   Simulation time:                   505.4500 s
   Rotor Speed:                         0.8938 rad/s
   Azimuth:                             5.6172 rad
   Wind Speed:                         10.0000 m/s
   Number of continuous states:         0
   Number of discrete states:           0
   Number of constraint states:         0
   Number of inputs:                 1746
   Number of outputs:                   4
   Jacobians included in this file?    No

Order of inputs:
     Column   Operating Point                     Rotating Frame? Derivative Order Description
   ---------- ---------------                     --------------- ---------------- -----------
          1    8.511E+00                                 F               0         Tower X translation displacement, node 1, m
          2   -1.355E+00                                 F               0         Tower Y translation displacement, node 1, m
          3   -9.591E-02                                 F               0         Tower Z translation displacement, node 1, m
          4    8.748E+00                                 F               0         Tower X translation displacement, node 2, m
          5   -1.887E+00                                 F               0         Tower Y translation displacement, node 2, m
          6   -1.097E-01                                 F               0         Tower Z translation displacement, node 2, m
          7    8.998E+00                                 F               0         Tower X translation displacement, node 3, m
          8   -2.420E+00                                 F               0         Tower Y translation displacement, node 3, m
          9   -1.237E-01                                 F               0         Tower Z translation displacement, node 3, m
         10    9.257E+00                                 F               0         Tower X translation displacement, node 4, m
         11   -2.952E+00                                 F               0         Tower Y translation displacement, node 4, m
         12   -1.379E-01                                 F               0         Tower Z translation displacement, node 4, m
         13    9.525E+00                                 F               0         Tower X translation displacement, node 5, m
         14   -3.485E+00                                 F               0         Tower Y translation displacement, node 5, m
         15   -1.523E-01                                 F               0         Tower Z translation displacement, node 5, m
         16    9.798E+00                                 F               0         Tower X translation displacement, node 6, m
         17   -4.017E+00                                 F               0         Tower Y translation displacement, node 6, m
         18   -1.668E-01                                 F               0         Tower Z translation displacement, node 6, m
         19    1.008E+01                                 F               0         Tower X translation displacement, node 7, m
         20   -4.549E+00                                 F               0         Tower Y translation displacement, node 7, m
         21   -1.814E-01                                 F               0         Tower Z translation displacement, node 7, m
         22    1.036E+01                                 F               0         Tower X translation displacement, node 8, m
         23   -5.082E+00                                 F               0         Tower Y translation displacement, node 8, m
         24   -1.960E-01                                 F               0         Tower Z translation displacement, node 8, m
         25    1.064E+01                                 F               0         Tower X translation displacement, node 9, m
         26   -5.614E+00                                 F               0         Tower Y translation displacement, node 9, m
         27   -2.108E-01                                 F               0         Tower Z translation displacement, node 9, m
         28    1.092E+01                                 F               0         Tower X translation displacement, node 10, m
         29   -6.146E+00                                 F               0         Tower Y translation displacement, node 10, m
         30   -2.255E-01                                 F               0         Tower Z translation displacement, node 10, m
         31    1.121E+01                                 F               0         Tower X translation displacement, node 11, m
         32   -6.679E+00                                 F               0         Tower Y translation displacement, node 11, m
         33   -2.403E-01                                 F               0         Tower Z translation displacement, node 11, m
         34    9.998E-01,  7.496E-03, -1.841E-02         F               0         Tower X orientation angle, node 1, rad
         35   -6.694E-03,  9.990E-01,  4.325E-02         F               0         Tower Y orientation angle, node 1, rad
         36    1.872E-02, -4.312E-02,  9.989E-01         F               0         Tower Z orientation angle, node 1, rad
         37    9.998E-01,  7.540E-03, -1.943E-02         F               0         Tower X orientation angle, node 2, rad
         38   -6.694E-03,  9.990E-01,  4.325E-02         F               0         Tower Y orientation angle, node 2, rad
         39    1.974E-02, -4.311E-02,  9.989E-01         F               0         Tower Z orientation angle, node 2, rad
         40    9.998E-01,  7.578E-03, -2.030E-02         F               0         Tower X orientation angle, node 3, rad
         41   -6.694E-03,  9.990E-01,  4.325E-02         F               0         Tower Y orientation angle, node 3, rad
         42    2.061E-02, -4.310E-02,  9.989E-01         F               0         Tower Z orientation angle, node 3, rad
         43    9.998E-01,  7.609E-03, -2.102E-02         F               0         Tower X orientation angle, node 4, rad
         44   -6.694E-03,  9.990E-01,  4.325E-02         F               0         Tower Y orientation angle, node 4, rad
         45    2.133E-02, -4.310E-02,  9.988E-01         F               0         Tower Z orientation angle, node 4, rad
         46    9.997E-01,  7.633E-03, -2.159E-02         F               0         Tower X orientation angle, node 5, rad
         47   -6.694E-03,  9.990E-01,  4.325E-02         F               0         Tower Y orientation angle, node 5, rad
         48    2.189E-02, -4.309E-02,  9.988E-01         F               0         Tower Z orientation angle, node 5, rad
         49    9.997E-01,  7.652E-03, -2.202E-02         F               0         Tower X orientation angle, node 6, rad
         50   -6.694E-03,  9.990E-01,  4.325E-02         F               0         Tower Y orientation angle, node 6, rad
         51    2.233E-02, -4.309E-02,  9.988E-01         F               0         Tower Z orientation angle, node 6, rad
         52    9.997E-01,  7.665E-03, -2.232E-02         F               0         Tower X orientation angle, node 7, rad
         53   -6.694E-03,  9.990E-01,  4.325E-02         F               0         Tower Y orientation angle, node 7, rad
         54    2.263E-02, -4.309E-02,  9.988E-01         F               0         Tower Z orientation angle, node 7, rad
         55    9.997E-01,  7.674E-03, -2.253E-02         F               0         Tower X orientation angle, node 8, rad
         56   -6.694E-03,  9.990E-01,  4.325E-02         F               0         Tower Y orientation angle, node 8, rad
         57    2.284E-02, -4.308E-02,  9.988E-01         F               0         Tower Z orientation angle, node 8, rad
         58    9.997E-01,  7.679E-03, -2.265E-02         F               0         Tower X orientation angle, node 9, rad
         59   -6.694E-03,  9.990E-01,  4.325E-02         F               0         Tower Y orientation angle, node 9, rad
         60    2.296E-02, -4.308E-02,  9.988E-01         F               0         Tower Z orientation angle, node 9, rad
         61    9.997E-01,  7.682E-03, -2.272E-02         F               0         Tower X orientation angle, node 10, rad
         62   -6.694E-03,  9.990E-01,  4.325E-02         F               0         Tower Y orientation angle, node 10, rad
         63    2.303E-02, -4.308E-02,  9.988E-01         F               0         Tower Z orientation angle, node 10, rad
         64    9.997E-01,  7.684E-03, -2.275E-02         F               0         Tower X orientation angle, node 11, rad
         65   -6.694E-03,  9.990E-01,  4.325E-02         F               0         Tower Y orientation angle, node 11, rad
         66    2.306E-02, -4.308E-02,  9.988E-01         F               0         Tower Z orientation angle, node 11, rad
         67   -2.045E-03                                 F               0         Tower X translation velocity, node 1, m/s
         68    2.451E-07                                 F               0         Tower Y translation velocity, node 1, m/s
         69   -8.328E-03                                 F               0         Tower Z translation velocity, node 1, m/s
         70   -2.038E-03                                 F               0         Tower X translation velocity, node 2, m/s
         71    4.601E-07                                 F               0         Tower Y translation velocity, node 2, m/s
         72   -8.328E-03                                 F               0         Tower Z translation velocity, node 2, m/s
         73   -2.014E-03                                 F               0         Tower X translation velocity, node 3, m/s
         74    8.151E-07                                 F               0         Tower Y translation velocity, node 3, m/s
         75   -8.328E-03                                 F               0         Tower Z translation velocity, node 3, m/s
         76   -1.975E-03                                 F               0         Tower X translation velocity, node 4, m/s
         77    1.300E-06                                 F               0         Tower Y translation velocity, node 4, m/s
         78   -8.329E-03                                 F               0         Tower Z translation velocity, node 4, m/s
         79   -1.918E-03                                 F               0         Tower X translation velocity, node 5, m/s
         80    1.917E-06                                 F               0         Tower Y translation velocity, node 5, m/s
         81   -8.330E-03                                 F               0         Tower Z translation velocity, node 5, m/s
         82   -1.846E-03                                 F               0         Tower X translation velocity, node 6, m/s
         83    2.663E-06                                 F               0         Tower Y translation velocity, node 6, m/s
         84   -8.332E-03                                 F               0         Tower Z translation velocity, node 6, m/s
         85   -1.760E-03                                 F               0         Tower X translation velocity, node 7, m/s
         86    3.521E-06                                 F               0         Tower Y translation velocity, node 7, m/s
         87   -8.334E-03                                 F               0         Tower Z translation velocity, node 7, m/s
         88   -1.659E-03                                 F               0         Tower X translation velocity, node 8, m/s
         89    4.492E-06                                 F               0         Tower Y translation velocity, node 8, m/s
         90   -8.336E-03                                 F               0         Tower Z translation velocity, node 8, m/s
         91   -1.546E-03                                 F               0         Tower X translation velocity, node 9, m/s
         92    5.558E-06                                 F               0         Tower Y translation velocity, node 9, m/s
         93   -8.338E-03                                 F               0         Tower Z translation velocity, node 9, m/s
         94   -1.424E-03                                 F               0         Tower X translation velocity, node 10, m/s
         95    6.698E-06                                 F               0         Tower Y translation velocity, node 10, m/s
         96   -8.341E-03                                 F               0         Tower Z translation velocity, node 10, m/s
         97   -1.295E-03                                 F               0         Tower X translation velocity, node 11, m/s
         98    7.887E-06                                 F               0         Tower Y translation velocity, node 11, m/s
         99   -8.344E-03                                 F               0         Tower Z translation velocity, node 11, m/s
        100    1.139E+01                                 F               0         Hub X translation displacement, node 1, m
        101   -7.100E+00                                 F               0         Hub Y translation displacement, node 1, m
        102   -3.905E-03                                 F               0         Hub Z translation displacement, node 1, m
        103    9.918E-01,  1.214E-02, -1.270E-01         F               0         Hub X orientation angle, node 1, rad
        104   -8.399E-02,  8.116E-01, -5.782E-01         F               0         Hub Y orientation angle, node 1, rad
        105    9.607E-02,  5.841E-01,  8.059E-01         F               0         Hub Z orientation angle, node 1, rad
        106    8.865E-01                                 F               0         Hub X rotation velocity, node 1, rad/s
        107    1.087E-02                                 F               0         Hub Y rotation velocity, node 1, rad/s
        108   -1.135E-01                                 F               0         Hub Z rotation velocity, node 1, rad/s
        109    9.939E-01, -1.194E-02, -1.098E-01         F               0         Blade root 1 X orientation angle, node 1, rad
        110   -5.453E-02,  8.116E-01, -5.817E-01         F               0         Blade root 1 Y orientation angle, node 1, rad
        111    9.607E-02,  5.841E-01,  8.059E-01         F               0         Blade root 1 Z orientation angle, node 1, rad
        112    9.877E-01,  9.170E-03, -1.563E-01         F               0         Blade root 2 X orientation angle, node 1, rad
        113    1.546E-01,  1.004E-01,  9.829E-01         F               0         Blade root 2 Y orientation angle, node 1, rad
        114    2.470E-02, -9.949E-01,  9.777E-02         F               0         Blade root 2 Z orientation angle, node 1, rad
        115    9.926E-01,  3.919E-02, -1.148E-01         F               0         Blade root 3 X orientation angle, node 1, rad
        116   -1.176E-02, -9.109E-01, -4.125E-01         F               0         Blade root 3 Y orientation angle, node 1, rad
        117   -1.208E-01,  4.108E-01, -9.037E-01         F               0         Blade root 3 Z orientation angle, node 1, rad
        118    1.135E+01                                 F               0         Blade 1 X translation displacement, node 1, m
        119   -3.864E+00                                 F               0         Blade 1 Y translation displacement, node 1, m
        120   -1.049E+00                                 F               0         Blade 1 Z translation displacement, node 1, m
        121    1.134E+01                                 F               0         Blade 1 X translation displacement, node 2, m
        122   -3.084E+00                                 F               0         Blade 1 Y translation displacement, node 2, m
        123   -1.300E+00                                 F               0         Blade 1 Z translation displacement, node 2, m
        124    1.118E+01                                 F               0         Blade 1 X translation displacement, node 3, m
        125    7.520E+00                                 F               0         Blade 1 Y translation displacement, node 3, m
        126   -4.724E+00                                 F               0         Blade 1 Z translation displacement, node 3, m
        127    1.115E+01                                 F               0         Blade 1 X translation displacement, node 4, m
        128    9.779E+00                                 F               0         Blade 1 Y translation displacement, node 4, m
        129   -5.453E+00                                 F               0         Blade 1 Z translation displacement, node 4, m
        130    1.112E+01                                 F               0         Blade 1 X translation displacement, node 5, m
        131    1.204E+01                                 F               0         Blade 1 Y translation displacement, node 5, m
        132   -6.182E+00                                 F               0         Blade 1 Z translation displacement, node 5, m
        133    1.108E+01                                 F               0         Blade 1 X translation displacement, node 6, m
        134    1.430E+01                                 F               0         Blade 1 Y translation displacement, node 6, m
        135   -6.912E+00                                 F               0         Blade 1 Z translation displacement, node 6, m
        136    1.105E+01                                 F               0         Blade 1 X translation displacement, node 7, m
        137    1.656E+01                                 F               0         Blade 1 Y translation displacement, node 7, m
        138   -7.641E+00                                 F               0         Blade 1 Z translation displacement, node 7, m
        139    1.102E+01                                 F               0         Blade 1 X translation displacement, node 8, m
        140    1.882E+01                                 F               0         Blade 1 Y translation displacement, node 8, m
        141   -8.370E+00                                 F               0         Blade 1 Z translation displacement, node 8, m
        142    1.099E+01                                 F               0         Blade 1 X translation displacement, node 9, m
        143    2.108E+01                                 F               0         Blade 1 Y translation displacement, node 9, m
        144   -9.100E+00                                 F               0         Blade 1 Z translation displacement, node 9, m
        145    1.095E+01                                 F               0         Blade 1 X translation displacement, node 10, m
        146    2.333E+01                                 F               0         Blade 1 Y translation displacement, node 10, m
        147   -9.829E+00                                 F               0         Blade 1 Z translation displacement, node 10, m
        148    1.092E+01                                 F               0         Blade 1 X translation displacement, node 11, m
        149    2.559E+01                                 F               0         Blade 1 Y translation displacement, node 11, m
        150   -1.056E+01                                 F               0         Blade 1 Z translation displacement, node 11, m
        151    1.089E+01                                 F               0         Blade 1 X translation displacement, node 12, m
        152    2.785E+01                                 F               0         Blade 1 Y translation displacement, node 12, m
        153   -1.129E+01                                 F               0         Blade 1 Z translation displacement, node 12, m
        154    1.085E+01                                 F               0         Blade 1 X translation displacement, node 13, m
        155    3.011E+01                                 F               0         Blade 1 Y translation displacement, node 13, m
        156   -1.202E+01                                 F               0         Blade 1 Z translation displacement, node 13, m
        157    1.082E+01                                 F               0         Blade 1 X translation displacement, node 14, m
        158    3.237E+01                                 F               0         Blade 1 Y translation displacement, node 14, m
        159   -1.275E+01                                 F               0         Blade 1 Z translation displacement, node 14, m
        160    1.079E+01                                 F               0         Blade 1 X translation displacement, node 15, m
        161    3.463E+01                                 F               0         Blade 1 Y translation displacement, node 15, m
        162   -1.348E+01                                 F               0         Blade 1 Z translation displacement, node 15, m
        163    1.076E+01                                 F               0         Blade 1 X translation displacement, node 16, m
        164    3.689E+01                                 F               0         Blade 1 Y translation displacement, node 16, m
        165   -1.421E+01                                 F               0         Blade 1 Z translation displacement, node 16, m
        166    1.072E+01                                 F               0         Blade 1 X translation displacement, node 17, m
        167    3.915E+01                                 F               0         Blade 1 Y translation displacement, node 17, m
        168   -1.493E+01                                 F               0         Blade 1 Z translation displacement, node 17, m
        169    1.069E+01                                 F               0         Blade 1 X translation displacement, node 18, m
        170    4.141E+01                                 F               0         Blade 1 Y translation displacement, node 18, m
        171   -1.566E+01                                 F               0         Blade 1 Z translation displacement, node 18, m
        172    1.066E+01                                 F               0         Blade 1 X translation displacement, node 19, m
        173    4.367E+01                                 F               0         Blade 1 Y translation displacement, node 19, m
        174   -1.639E+01                                 F               0         Blade 1 Z translation displacement, node 19, m
        175    1.063E+01                                 F               0         Blade 1 X translation displacement, node 20, m
        176    4.593E+01                                 F               0         Blade 1 Y translation displacement, node 20, m
        177   -1.712E+01                                 F               0         Blade 1 Z translation displacement, node 20, m
        178    1.059E+01                                 F               0         Blade 1 X translation displacement, node 21, m
        179    4.819E+01                                 F               0         Blade 1 Y translation displacement, node 21, m
        180   -1.785E+01                                 F               0         Blade 1 Z translation displacement, node 21, m
        181    1.056E+01                                 F               0         Blade 1 X translation displacement, node 22, m
        182    5.045E+01                                 F               0         Blade 1 Y translation displacement, node 22, m
        183   -1.858E+01                                 F               0         Blade 1 Z translation displacement, node 22, m
        184    1.053E+01                                 F               0         Blade 1 X translation displacement, node 23, m
        185    5.271E+01                                 F               0         Blade 1 Y translation displacement, node 23, m
        186   -1.931E+01                                 F               0         Blade 1 Z translation displacement, node 23, m
        187    1.049E+01                                 F               0         Blade 1 X translation displacement, node 24, m
        188    5.497E+01                                 F               0         Blade 1 Y translation displacement, node 24, m
        189   -2.004E+01                                 F               0         Blade 1 Z translation displacement, node 24, m
        190    1.046E+01                                 F               0         Blade 1 X translation displacement, node 25, m
        191    5.722E+01                                 F               0         Blade 1 Y translation displacement, node 25, m
        192   -2.077E+01                                 F               0         Blade 1 Z translation displacement, node 25, m
        193    1.043E+01                                 F               0         Blade 1 X translation displacement, node 26, m
        194    5.948E+01                                 F               0         Blade 1 Y translation displacement, node 26, m
        195   -2.150E+01                                 F               0         Blade 1 Z translation displacement, node 26, m
        196    1.040E+01                                 F               0         Blade 1 X translation displacement, node 27, m
        197    6.174E+01                                 F               0         Blade 1 Y translation displacement, node 27, m
        198   -2.223E+01                                 F               0         Blade 1 Z translation displacement, node 27, m
        199    1.037E+01                                 F               0         Blade 1 X translation displacement, node 28, m
        200    6.366E+01                                 F               0         Blade 1 Y translation displacement, node 28, m
        201   -2.285E+01                                 F               0         Blade 1 Z translation displacement, node 28, m
        202    9.094E-01, -3.807E-01,  1.675E-01         F               0         Blade 1 X orientation angle, node 1, rad
        203    4.047E-01,  7.168E-01, -5.678E-01         F               0         Blade 1 Y orientation angle, node 1, rad
        204    9.607E-02,  5.841E-01,  8.059E-01         F               0         Blade 1 Z orientation angle, node 1, rad
        205    9.094E-01, -3.807E-01,  1.675E-01         F               0         Blade 1 X orientation angle, node 2, rad
        206    4.047E-01,  7.168E-01, -5.678E-01         F               0         Blade 1 Y orientation angle, node 2, rad
        207    9.607E-02,  5.841E-01,  8.059E-01         F               0         Blade 1 Z orientation angle, node 2, rad
        208    9.794E-01, -2.000E-01,  2.819E-02         F               0         Blade 1 X orientation angle, node 3, rad
        209    1.776E-01,  7.866E-01, -5.913E-01         F               0         Blade 1 Y orientation angle, node 3, rad
        210    9.607E-02,  5.841E-01,  8.059E-01         F               0         Blade 1 Z orientation angle, node 3, rad
        211    9.860E-01, -1.666E-01,  3.192E-03         F               0         Blade 1 X orientation angle, node 4, rad
        212    1.361E-01,  7.944E-01, -5.920E-01         F               0         Blade 1 Y orientation angle, node 4, rad
        213    9.607E-02,  5.841E-01,  8.059E-01         F               0         Blade 1 Z orientation angle, node 4, rad
        214    9.900E-01, -1.401E-01, -1.644E-02         F               0         Blade 1 X orientation angle, node 5, rad
        215    1.033E-01,  7.995E-01, -5.918E-01         F               0         Blade 1 Y orientation angle, node 5, rad
        216    9.607E-02,  5.841E-01,  8.059E-01         F               0         Blade 1 Z orientation angle, node 5, rad
        217    9.924E-01, -1.189E-01, -3.213E-02         F               0         Blade 1 X orientation angle, node 6, rad
        218    7.705E-02,  8.029E-01, -5.911E-01         F               0         Blade 1 Y orientation angle, node 6, rad
        219    9.607E-02,  5.841E-01,  8.059E-01         F               0         Blade 1 Z orientation angle, node 6, rad
        220    9.938E-01, -1.013E-01, -4.502E-02         F               0         Blade 1 X orientation angle, node 7, rad
        221    5.538E-02,  8.053E-01, -5.903E-01         F               0         Blade 1 Y orientation angle, node 7, rad
        222    9.607E-02,  5.841E-01,  8.059E-01         F               0         Blade 1 Z orientation angle, node 7, rad
        223    9.947E-01, -8.671E-02, -5.572E-02         F               0         Blade 1 X orientation angle, node 8, rad
        224    3.733E-02,  8.070E-01, -5.894E-01         F               0         Blade 1 Y orientation angle, node 8, rad
        225    9.607E-02,  5.841E-01,  8.059E-01         F               0         Blade 1 Z orientation angle, node 8, rad
        226    9.951E-01, -7.430E-02, -6.477E-02         F               0         Blade 1 X orientation angle, node 9, rad
        227    2.205E-02,  8.082E-01, -5.884E-01         F               0         Blade 1 Y orientation angle, node 9, rad