
Linearized model: Predictions were generated on 31-Jan-2024 at 12:35:17 using OpenFAST, compiled as a 64-bit application using single precision at commit v3.5.1
 linked with  NWTC Subroutine Library; ElastoDyn; InflowWind; AeroDyn; ServoDyn; HydroDyn; MAP++ (<1.20.10>, <Oct-20-2023>)

Description from the FAST input file: CCT-9 Campign 4 model. Input files to be run with OpenFAST 3.5.0. GitHub branch from Lu Wang (https://github.com/luwang00/openfast/tree/dev) compiled on March 7, 2023.

Simulation information:
   Simulation time:                   507.4250 s
   Rotor Speed:                         0.8936 rad/s
   Azimuth:                             1.0990 rad
   Wind Speed:                         10.0000 m/s
   Number of continuous states:        12
   Number of discrete states:           0
   Number of constraint states:         0
   Number of inputs:                 1890
   Number of outputs:                  19
   Jacobians included in this file?    No

Order of continuous states:
   Row/Column Operating Point                     Rotating Frame? Derivative Order Description
   ---------- ---------------                     --------------- ---------------- -----------
          1    8.163E+00                                 F               2         Platform horizontal surge translation DOF (internal DOF index = DOF_Sg), m
          2   -9.089E-02                                 F               2         Platform vertical heave translation DOF (internal DOF index = DOF_Hv), m
          3    7.100E-03                                 F               2         Platform yaw rotation DOF (internal DOF index = DOF_Y), rad
          4    3.857E-01                                 F               2         1st tower fore-aft bending mode DOF (internal DOF index = DOF_TFA1), m
          5    1.285E-03                                 F               2         2nd tower fore-aft bending mode DOF (internal DOF index = DOF_TFA2), m
          6    5.811E+00                                 F               2         Variable speed generator DOF (internal DOF index = DOF_GeAz), rad
          7   -2.663E-03                                 F               2         First time derivative of Platform horizontal surge translation DOF (internal DOF index = DOF_Sg), m/s
          8   -6.526E-03                                 F               2         First time derivative of Platform vertical heave translation DOF (internal DOF index = DOF_Hv), m/s
          9   -2.434E-06                                 F               2         First time derivative of Platform yaw rotation DOF (internal DOF index = DOF_Y), rad/s
         10    8.236E-05                                 F               2         First time derivative of 1st tower fore-aft bending mode DOF (internal DOF index = DOF_TFA1), m/s
         11   -1.988E-06                                 F               2         First time derivative of 2nd tower fore-aft bending mode DOF (internal DOF index = DOF_TFA2), m/s
         12    8.936E-01                                 F               2         First time derivative of Variable speed generator DOF (internal DOF index = DOF_GeAz), rad/s

Order of continuous state derivatives:
   Row/Column Operating Point                     Rotating Frame? Derivative Order Description
   ---------- ---------------                     --------------- ---------------- -----------
          1   -2.663E-03                                 F               2         First time derivative of Platform horizontal surge translation DOF (internal DOF index = DOF_Sg), m/s
          2   -6.526E-03                                 F               2         First time derivative of Platform vertical heave translation DOF (internal DOF index = DOF_Hv), m/s
          3   -2.434E-06                                 F               2         First time derivative of Platform yaw rotation DOF (internal DOF index = DOF_Y), rad/s
          4    8.236E-05                                 F               2         First time derivative of 1st tower fore-aft bending mode DOF (internal DOF index = DOF_TFA1), m/s
          5   -1.988E-06                                 F               2         First time derivative of 2nd tower fore-aft bending mode DOF (internal DOF index = DOF_TFA2), m/s
          6    8.936E-01                                 F               2         First time derivative of Variable speed generator DOF (internal DOF index = DOF_GeAz), rad/s
          7   -2.406E-04                                 F               2         First time derivative of First time derivative of Platform horizontal surge translation DOF (internal DOF index = DOF_Sg), m/s/s
          8    1.725E-03                                 F               2         First time derivative of First time derivative of Platform vertical heave translation DOF (internal DOF index = DOF_Hv), m/s/s
          9   -1.917E-07                                 F               2         First time derivative of First time derivative of Platform yaw rotation DOF (internal DOF index = DOF_Y), rad/s/s
         10   -7.725E-04                                 F               2         First time derivative of First time derivative of 1st tower fore-aft bending mode DOF (internal DOF index = DOF_TFA1), m/s/s
         11   -6.602E-07                                 F               2         First time derivative of First time derivative of 2nd tower fore-aft bending mode DOF (internal DOF index = DOF_TFA2), m/s/s
         12    3.887E-05                                 F               2         First time derivative of First time derivative of Variable speed generator DOF (internal DOF index = DOF_GeAz), rad/s/s

Order of inputs:
     Column   Operating Point                     Rotating Frame? Derivative Order Description
   ---------- ---------------                     --------------- ---------------- -----------
          1    8.996E+01                                 F               0         Blade 1 X force, node 1, N
          2    4.638E+01                                 F               0         Blade 1 Y force, node 1, N
          3    8.841E+01                                 F               0         Blade 1 Z force, node 1, N
          4    3.495E+02                                 F               0         Blade 1 X force, node 2, N
          5    8.557E+01                                 F               0         Blade 1 Y force, node 2, N
          6    1.347E+02                                 F               0         Blade 1 Z force, node 2, N
          7    4.310E+02                                 F               0         Blade 1 X force, node 3, N
          8    6.004E+01                                 F               0         Blade 1 Y force, node 3, N
          9    6.565E+01                                 F               0         Blade 1 Z force, node 3, N
         10    5.501E+02                                 F               0         Blade 1 X force, node 4, N
         11    4.528E+01                                 F               0         Blade 1 Y force, node 4, N
         12    1.462E+01                                 F               0         Blade 1 Z force, node 4, N
         13    6.691E+02                                 F               0         Blade 1 X force, node 5, N
         14    3.053E+01                                 F               0         Blade 1 Y force, node 5, N
         15   -3.641E+01                                 F               0         Blade 1 Z force, node 5, N
         16    7.882E+02                                 F               0         Blade 1 X force, node 6, N
         17    1.578E+01                                 F               0         Blade 1 Y force, node 6, N
         18   -8.745E+01                                 F               0         Blade 1 Z force, node 6, N
         19    9.073E+02                                 F               0         Blade 1 X force, node 7, N
         20    1.023E+00                                 F               0         Blade 1 Y force, node 7, N
         21   -1.385E+02                                 F               0         Blade 1 Z force, node 7, N
         22    1.026E+03                                 F               0         Blade 1 X force, node 8, N
         23   -1.373E+01                                 F               0         Blade 1 Y force, node 8, N
         24   -1.895E+02                                 F               0         Blade 1 Z force, node 8, N
         25    1.145E+03                                 F               0         Blade 1 X force, node 9, N
         26   -2.848E+01                                 F               0         Blade 1 Y force, node 9, N
         27   -2.405E+02                                 F               0         Blade 1 Z force, node 9, N
         28    1.264E+03                                 F               0         Blade 1 X force, node 10, N
         29   -4.324E+01                                 F               0         Blade 1 Y force, node 10, N
         30   -2.916E+02                                 F               0         Blade 1 Z force, node 10, N
         31    1.383E+03                                 F               0         Blade 1 X force, node 11, N
         32   -5.799E+01                                 F               0         Blade 1 Y force, node 11, N
         33   -3.426E+02                                 F               0         Blade 1 Z force, node 11, N
         34    1.503E+03                                 F               0         Blade 1 X force, node 12, N
         35   -7.274E+01                                 F               0         Blade 1 Y force, node 12, N
         36   -3.936E+02                                 F               0         Blade 1 Z force, node 12, N
         37    1.622E+03                                 F               0         Blade 1 X force, node 13, N
         38   -8.750E+01                                 F               0         Blade 1 Y force, node 13, N
         39   -4.447E+02                                 F               0         Blade 1 Z force, node 13, N
         40    1.741E+03                                 F               0         Blade 1 X force, node 14, N
         41   -1.022E+02                                 F               0         Blade 1 Y force, node 14, N
         42   -4.957E+02                                 F               0         Blade 1 Z force, node 14, N
         43    1.860E+03                                 F               0         Blade 1 X force, node 15, N
         44   -1.170E+02                                 F               0         Blade 1 Y force, node 15, N
         45   -5.467E+02                                 F               0         Blade 1 Z force, node 15, N
         46    1.979E+03                                 F               0         Blade 1 X force, node 16, N
         47   -1.318E+02                                 F               0         Blade 1 Y force, node 16, N
         48   -5.978E+02                                 F               0         Blade 1 Z force, node 16, N
         49    2.435E+03                                 F               0         Blade 1 X force, node 17, N
         50   -1.691E+02                                 F               0         Blade 1 Y force, node 17, N
         51   -7.510E+02                                 F               0         Blade 1 Z force, node 17, N
         52    1.877E+03                                 F               0         Blade 1 X force, node 18, N
         53   -1.253E+02                                 F               0         Blade 1 Y force, node 18, N
         54   -5.677E+02                                 F               0         Blade 1 Z force, node 18, N
         55    2.330E+03                                 F               0         Blade 1 X force, node 19, N
         56   -1.457E+02                                 F               0         Blade 1 Y force, node 19, N
         57   -6.831E+02                                 F               0         Blade 1 Z force, node 19, N
         58    2.007E+03                                 F               0         Blade 1 X force, node 20, N
         59   -1.179E+02                                 F               0         Blade 1 Y force, node 20, N
         60   -5.717E+02                                 F               0         Blade 1 Z force, node 20, N
         61    2.999E+03                                 F               0         Blade 1 X force, node 21, N
         62   -1.636E+02                                 F               0         Blade 1 Y force, node 21, N
         63   -8.262E+02                                 F               0         Blade 1 Z force, node 21, N
         64    2.675E+03                                 F               0         Blade 1 X force, node 22, N
         65   -1.351E+02                                 F               0         Blade 1 Y force, node 22, N
         66   -7.132E+02                                 F               0         Blade 1 Z force, node 22, N
         67    2.774E+03                                 F               0         Blade 1 X force, node 23, N
         68   -1.304E+02                                 F               0         Blade 1 Y force, node 23, N
         69   -7.180E+02                                 F               0         Blade 1 Z force, node 23, N
         70    2.922E+03                                 F               0         Blade 1 X force, node 24, N
         71   -1.278E+02                                 F               0         Blade 1 Y force, node 24, N
         72   -7.353E+02                                 F               0         Blade 1 Z force, node 24, N
         73    3.019E+03                                 F               0         Blade 1 X force, node 25, N
         74   -1.226E+02                                 F               0         Blade 1 Y force, node 25, N
         75   -7.389E+02                                 F               0         Blade 1 Z force, node 25, N
         76    3.132E+03                                 F               0         Blade 1 X force, node 26, N
         77   -1.181E+02                                 F               0         Blade 1 Y force, node 26, N
         78   -7.465E+02                                 F               0         Blade 1 Z force, node 26, N
         79    3.782E+03                                 F               0         Blade 1 X force, node 27, N
         80   -1.317E+02                                 F               0         Blade 1 Y force, node 27, N
         81   -8.772E+02                                 F               0         Blade 1 Z force, node 27, N
         82    2.823E+03                                 F               0         Blade 1 X force, node 28, N
         83   -9.068E+01                                 F               0         Blade 1 Y force, node 28, N
         84   -6.380E+02                                 F               0         Blade 1 Z force, node 28, N
         85    3.472E+03                                 F               0         Blade 1 X force, node 29, N
         86   -1.040E+02                                 F               0         Blade 1 Y force, node 29, N
         87   -7.681E+02                                 F               0         Blade 1 Z force, node 29, N
         88    2.969E+03                                 F               0         Blade 1 X force, node 30, N
         89   -8.283E+01                                 F               0         Blade 1 Y force, node 30, N
         90   -6.434E+02                                 F               0         Blade 1 Z force, node 30, N
         91    4.315E+03                                 F               0         Blade 1 X force, node 31, N
         92   -1.105E+02                                 F               0         Blade 1 Y force, node 31, N
         93   -9.131E+02                                 F               0         Blade 1 Z force, node 31, N
         94    3.811E+03                                 F               0         Blade 1 X force, node 32, N
         95   -8.906E+01                                 F               0         Blade 1 Y force, node 32, N
         96   -7.878E+02                                 F               0         Blade 1 Z force, node 32, N
         97    3.923E+03                                 F               0         Blade 1 X force, node 33, N
         98   -8.392E+01                                 F               0         Blade 1 Y force, node 33, N
         99   -7.938E+02                                 F               0         Blade 1 Z force, node 33, N
        100    4.036E+03                                 F               0         Blade 1 X force, node 34, N
        101   -7.878E+01                                 F               0         Blade 1 Y force, node 34, N
        102   -8.000E+02                                 F               0         Blade 1 Z force, node 34, N
        103    4.149E+03                                 F               0         Blade 1 X force, node 35, N
        104   -7.352E+01                                 F               0         Blade 1 Y force, node 35, N
        105   -8.058E+02                                 F               0         Blade 1 Z force, node 35, N
        106    4.260E+03                                 F               0         Blade 1 X force, node 36, N
        107   -6.821E+01                                 F               0         Blade 1 Y force, node 36, N
        108   -8.114E+02                                 F               0         Blade 1 Z force, node 36, N
        109    5.117E+03                                 F               0         Blade 1 X force, node 37, N
        110   -7.310E+01                                 F               0         Blade 1 Y force, node 37, N
        111   -9.551E+02                                 F               0         Blade 1 Z force, node 37, N
        112    3.741E+03                                 F               0         Blade 1 X force, node 38, N
        113   -4.736E+01                                 F               0         Blade 1 Y force, node 38, N
        114   -6.848E+02                                 F               0         Blade 1 Z force, node 38, N
        115    4.598E+03                                 F               0         Blade 1 X force, node 39, N
        116   -5.215E+01                                 F               0         Blade 1 Y force, node 39, N
        117   -8.284E+02                                 F               0         Blade 1 Z force, node 39, N
        118    3.932E+03                                 F               0         Blade 1 X force, node 40, N
        119   -3.961E+01                                 F               0         Blade 1 Y force, node 40, N
        120   -6.974E+02                                 F               0         Blade 1 Z force, node 40, N
        121    5.602E+03                                 F               0         Blade 1 X force, node 41, N
        122   -4.841E+01                                 F               0         Blade 1 Y force, node 41, N
        123   -9.759E+02                                 F               0         Blade 1 Z force, node 41, N
        124    4.934E+03                                 F               0         Blade 1 X force, node 42, N
        125   -3.569E+01                                 F               0         Blade 1 Y force, node 42, N
        126   -8.441E+02                                 F               0         Blade 1 Z force, node 42, N
        127    5.045E+03                                 F               0         Blade 1 X force, node 43, N
        128   -3.009E+01                                 F               0         Blade 1 Y force, node 43, N
        129   -8.490E+02                                 F               0         Blade 1 Z force, node 43, N
        130    5.183E+03                                 F               0         Blade 1 X force, node 44, N
        131   -2.461E+01                                 F               0         Blade 1 Y force, node 44, N
        132   -8.583E+02                                 F               0         Blade 1 Z force, node 44, N
        133    5.239E+03                                 F               0         Blade 1 X force, node 45, N
        134   -1.873E+01                                 F               0         Blade 1 Y force, node 45, N
        135   -8.540E+02                                 F               0         Blade 1 Z force, node 45, N
        136    5.377E+03                                 F               0         Blade 1 X force, node 46, N
        137   -1.321E+01                                 F               0         Blade 1 Y force, node 46, N
        138   -8.633E+02                                 F               0         Blade 1 Z force, node 46, N
        139    6.452E+03                                 F               0         Blade 1 X force, node 47, N
        140   -8.431E+00                                 F               0         Blade 1 Y force, node 47, N
        141   -1.019E+03                                 F               0         Blade 1 Z force, node 47, N
        142    4.635E+03                                 F               0         Blade 1 X force, node 48, N
        143   -9.835E-01                                 F               0         Blade 1 Y force, node 48, N
        144   -7.211E+02                                 F               0         Blade 1 Z force, node 48, N
        145    5.709E+03                                 F               0         Blade 1 X force, node 49, N
        146    3.883E+00                                 F               0         Blade 1 Y force, node 49, N
        147   -8.769E+02                                 F               0         Blade 1 Z force, node 49, N
        148    4.892E+03                                 F               0         Blade 1 X force, node 50, N
        149    7.600E+00                                 F               0         Blade 1 Y force, node 50, N
        150   -7.421E+02                                 F               0         Blade 1 Z force, node 50, N
        151    6.855E+03                                 F               0         Blade 1 X force, node 51, N
        152    1.739E+01                                 F               0         Blade 1 Y force, node 51, N
        153   -1.025E+03                                 F               0         Blade 1 Z force, node 51, N
        154    6.041E+03                                 F               0         Blade 1 X force, node 52, N
        155    2.110E+01                                 F               0         Blade 1 Y force, node 52, N
        156   -8.905E+02                                 F               0         Blade 1 Z force, node 52, N
        157    6.152E+03                                 F               0         Blade 1 X force, node 53, N
        158    2.684E+01                                 F               0         Blade 1 Y force, node 53, N
        159   -8.951E+02                                 F               0         Blade 1 Z force, node 53, N
        160    6.333E+03                                 F               0         Blade 1 X force, node 54, N
        161    3.296E+01                                 F               0         Blade 1 Y force, node 54, N
        162   -9.096E+02                                 F               0         Blade 1 Z force, node 54, N
        163    6.305E+03                                 F               0         Blade 1 X force, node 55, N
        164    3.800E+01                                 F               0         Blade 1 Y force, node 55, N
        165   -8.942E+02                                 F               0         Blade 1 Z force, node 55, N
        166    6.485E+03                                 F               0         Blade 1 X force, node 56, N
        167    4.418E+01                                 F               0         Blade 1 Y force, node 56, N
        168   -9.085E+02                                 F               0         Blade 1 Z force, node 56, N
        169    7.790E+03                                 F               0         Blade 1 X force, node 57, N
        170    5.944E+01                                 F               0         Blade 1 Y force, node 57, N
        171   -1.077E+03                                 F               0         Blade 1 Z force, node 57, N
        172    5.512E+03                                 F               0         Blade 1 X force, node 58, N
        173    4.636E+01                                 F               0         Blade 1 Y force, node 58, N
        174   -7.527E+02                                 F               0         Blade 1 Z force, node 58, N
        175    6.817E+03                                 F               0         Blade 1 X force, node 59, N
        176    6.166E+01                                 F               0         Blade 1 Y force, node 59, N
        177   -9.214E+02                                 F               0         Blade 1 Z force, node 59, N
        178    5.867E+03                                 F               0         Blade 1 X force, node 60, N
        179    5.675E+01                                 F               0         Blade 1 Y force, node 60, N
        180   -7.848E+02                                 F               0         Blade 1 Z force, node 60, N
        181    8.099E+03                                 F               0         Blade 1 X force, node 61, N
        182    8.412E+01                                 F               0         Blade 1 Y force, node 61, N
        183   -1.071E+03                                 F               0         Blade 1 Z force, node 61, N
        184    7.146E+03                                 F               0         Blade 1 X force, node 62, N
        185    7.928E+01                                 F               0         Blade 1 Y force, node 62, N
        186   -9.335E+02                                 F               0         Blade 1 Z force, node 62, N
        187    7.254E+03                                 F               0         Blade 1 X force, node 63, N
        188    8.519E+01                                 F               0         Blade 1 Y force, node 63, N
        189   -9.373E+02                                 F               0         Blade 1 Z force, node 63, N
        190    7.487E+03                                 F               0         Blade 1 X force, node 64, N
        191    9.265E+01                                 F               0         Blade 1 Y force, node 64, N
        192   -9.568E+02                                 F               0         Blade 1 Z force, node 64, N
        193    7.351E+03                                 F               0         Blade 1 X force, node 65, N
        194    9.543E+01                                 F               0         Blade 1 Y force, node 65, N
        195   -9.297E+02                                 F               0         Blade 1 Z force, node 65, N
        196    7.586E+03                                 F               0         Blade 1 X force, node 66, N
        197    1.029E+02                                 F               0         Blade 1 Y force, node 66, N
        198   -9.498E+02                                 F               0         Blade 1 Z force, node 66, N
        199    9.133E+03                                 F               0         Blade 1 X force, node 67, N
        200    1.294E+02                                 F               0         Blade 1 Y force, node 67, N
        201   -1.131E+03                                 F               0         Blade 1 Z force, node 67, N
        202    6.374E+03                                 F               0         Blade 1 X force, node 68, N
        203    9.403E+01                                 F               0         Blade 1 Y force, node 68, N
        204   -7.812E+02                                 F               0         Blade 1 Z force, node 68, N
        205    7.919E+03                                 F               0         Blade 1 X force, node 69, N
        206    1.206E+02                                 F               0         Blade 1 Y force, node 69, N
        207   -9.621E+02                                 F               0         Blade 1 Z force, node 69, N
        208    6.846E+03                                 F               0         Blade 1 X force, node 70, N
        209    1.076E+02                                 F               0         Blade 1 Y force, node 70, N
        210   -8.246E+02                                 F               0         Blade 1 Z force, node 70, N
        211    9.319E+03                                 F               0         Blade 1 X force, node 71, N
        212    1.515E+02                                 F               0         Blade 1 Y force, node 71, N
        213   -1.111E+03                                 F               0         Blade 1 Z force, node 71, N
        214    8.243E+03                                 F               0         Blade 1 X force, node 72, N
        215    1.386E+02                                 F               0         Blade 1 Y force, node 72, N
        216   -9.727E+02                                 F               0         Blade 1 Z force, node 72, N
        217    8.349E+03                                 F               0         Blade 1 X force, node 73, N