
Linearized model: Predictions were generated on 06-Feb-2024 at 16:18:08 using OpenFAST, compiled as a 64-bit application using single precision at commit v3.5.1
 linked with  NWTC Subroutine Library; ElastoDyn; InflowWind; AeroDyn; ServoDyn; HydroDyn; MAP++ (<1.20.10>, <Oct-20-2023>)

Description from the FAST input file: CCT-9 Campign 4 model. Input files to be run with OpenFAST 3.5.0. GitHub branch from Lu Wang (https://github.com/luwang00/openfast/tree/dev) compiled on March 7, 2023.

Simulation information:
   Simulation time:                  1004.7250 s
   Rotor Speed:                         1.0419 rad/s
   Azimuth:                             0.1407 rad
   Wind Speed:                         12.0000 m/s
   Number of continuous states:         0
   Number of discrete states:           0
   Number of constraint states:         0
   Number of inputs:                  303
   Number of outputs:                   1
   Jacobians included in this file?    No

Order of inputs:
     Column   Operating Point                     Rotating Frame? Derivative Order Description
   ---------- ---------------                     --------------- ---------------- -----------
          1   -1.080E+01                                 F               0         X-component position of node 1 (hub), m
          2    0.000E+00                                 F               0         Y-component position of node 1 (hub), m
          3    1.497E+02                                 F               0         Z-component position of node 1 (hub), m
          4    2.730E+01                                 F               0         X-component position of node 2 (blade 1, node 1), m
          5   -8.797E+00                                 F               0         Y-component position of node 2 (blade 1, node 1), m
          6    1.544E+02                                 F               0         Z-component position of node 2 (blade 1, node 1), m
          7    2.765E+01                                 F               0         X-component position of node 3 (blade 1, node 2), m
          8   -9.049E+00                                 F               0         Y-component position of node 3 (blade 1, node 2), m
          9    1.556E+02                                 F               0         Z-component position of node 3 (blade 1, node 2), m
         10    3.245E+01                                 F               0         X-component position of node 4 (blade 1, node 3), m
         11   -1.247E+01                                 F               0         Y-component position of node 4 (blade 1, node 3), m
         12    1.728E+02                                 F               0         Z-component position of node 4 (blade 1, node 3), m
         13    3.347E+01                                 F               0         X-component position of node 5 (blade 1, node 4), m
         14   -1.320E+01                                 F               0         Y-component position of node 5 (blade 1, node 4), m
         15    1.765E+02                                 F               0         Z-component position of node 5 (blade 1, node 4), m
         16    3.449E+01                                 F               0         X-component position of node 6 (blade 1, node 5), m
         17   -1.393E+01                                 F               0         Y-component position of node 6 (blade 1, node 5), m
         18    1.801E+02                                 F               0         Z-component position of node 6 (blade 1, node 5), m
         19    3.552E+01                                 F               0         X-component position of node 7 (blade 1, node 6), m
         20   -1.466E+01                                 F               0         Y-component position of node 7 (blade 1, node 6), m
         21    1.838E+02                                 F               0         Z-component position of node 7 (blade 1, node 6), m
         22    3.654E+01                                 F               0         X-component position of node 8 (blade 1, node 7), m
         23   -1.539E+01                                 F               0         Y-component position of node 8 (blade 1, node 7), m
         24    1.874E+02                                 F               0         Z-component position of node 8 (blade 1, node 7), m
         25    3.756E+01                                 F               0         X-component position of node 9 (blade 1, node 8), m
         26   -1.612E+01                                 F               0         Y-component position of node 9 (blade 1, node 8), m
         27    1.911E+02                                 F               0         Z-component position of node 9 (blade 1, node 8), m
         28    3.858E+01                                 F               0         X-component position of node 10 (blade 1, node 9), m
         29   -1.685E+01                                 F               0         Y-component position of node 10 (blade 1, node 9), m
         30    1.948E+02                                 F               0         Z-component position of node 10 (blade 1, node 9), m
         31    3.960E+01                                 F               0         X-component position of node 11 (blade 1, node 10), m
         32   -1.758E+01                                 F               0         Y-component position of node 11 (blade 1, node 10), m
         33    1.984E+02                                 F               0         Z-component position of node 11 (blade 1, node 10), m
         34    4.063E+01                                 F               0         X-component position of node 12 (blade 1, node 11), m
         35   -1.831E+01                                 F               0         Y-component position of node 12 (blade 1, node 11), m
         36    2.021E+02                                 F               0         Z-component position of node 12 (blade 1, node 11), m
         37    4.165E+01                                 F               0         X-component position of node 13 (blade 1, node 12), m
         38   -1.904E+01                                 F               0         Y-component position of node 13 (blade 1, node 12), m
         39    2.057E+02                                 F               0         Z-component position of node 13 (blade 1, node 12), m
         40    4.267E+01                                 F               0         X-component position of node 14 (blade 1, node 13), m
         41   -1.977E+01                                 F               0         Y-component position of node 14 (blade 1, node 13), m
         42    2.094E+02                                 F               0         Z-component position of node 14 (blade 1, node 13), m
         43    4.369E+01                                 F               0         X-component position of node 15 (blade 1, node 14), m
         44   -2.050E+01                                 F               0         Y-component position of node 15 (blade 1, node 14), m
         45    2.131E+02                                 F               0         Z-component position of node 15 (blade 1, node 14), m
         46    4.471E+01                                 F               0         X-component position of node 16 (blade 1, node 15), m
         47   -2.123E+01                                 F               0         Y-component position of node 16 (blade 1, node 15), m
         48    2.167E+02                                 F               0         Z-component position of node 16 (blade 1, node 15), m
         49    4.574E+01                                 F               0         X-component position of node 17 (blade 1, node 16), m
         50   -2.196E+01                                 F               0         Y-component position of node 17 (blade 1, node 16), m
         51    2.204E+02                                 F               0         Z-component position of node 17 (blade 1, node 16), m
         52    4.676E+01                                 F               0         X-component position of node 18 (blade 1, node 17), m
         53   -2.269E+01                                 F               0         Y-component position of node 18 (blade 1, node 17), m
         54    2.240E+02                                 F               0         Z-component position of node 18 (blade 1, node 17), m
         55    4.778E+01                                 F               0         X-component position of node 19 (blade 1, node 18), m
         56   -2.342E+01                                 F               0         Y-component position of node 19 (blade 1, node 18), m
         57    2.277E+02                                 F               0         Z-component position of node 19 (blade 1, node 18), m
         58    4.880E+01                                 F               0         X-component position of node 20 (blade 1, node 19), m
         59   -2.415E+01                                 F               0         Y-component position of node 20 (blade 1, node 19), m
         60    2.313E+02                                 F               0         Z-component position of node 20 (blade 1, node 19), m
         61    4.982E+01                                 F               0         X-component position of node 21 (blade 1, node 20), m
         62   -2.488E+01                                 F               0         Y-component position of node 21 (blade 1, node 20), m
         63    2.350E+02                                 F               0         Z-component position of node 21 (blade 1, node 20), m
         64    5.085E+01                                 F               0         X-component position of node 22 (blade 1, node 21), m
         65   -2.561E+01                                 F               0         Y-component position of node 22 (blade 1, node 21), m
         66    2.387E+02                                 F               0         Z-component position of node 22 (blade 1, node 21), m
         67    5.187E+01                                 F               0         X-component position of node 23 (blade 1, node 22), m
         68   -2.634E+01                                 F               0         Y-component position of node 23 (blade 1, node 22), m
         69    2.423E+02                                 F               0         Z-component position of node 23 (blade 1, node 22), m
         70    5.289E+01                                 F               0         X-component position of node 24 (blade 1, node 23), m
         71   -2.707E+01                                 F               0         Y-component position of node 24 (blade 1, node 23), m
         72    2.460E+02                                 F               0         Z-component position of node 24 (blade 1, node 23), m
         73    5.391E+01                                 F               0         X-component position of node 25 (blade 1, node 24), m
         74   -2.780E+01                                 F               0         Y-component position of node 25 (blade 1, node 24), m
         75    2.496E+02                                 F               0         Z-component position of node 25 (blade 1, node 24), m
         76    5.493E+01                                 F               0         X-component position of node 26 (blade 1, node 25), m
         77   -2.853E+01                                 F               0         Y-component position of node 26 (blade 1, node 25), m
         78    2.533E+02                                 F               0         Z-component position of node 26 (blade 1, node 25), m
         79    5.596E+01                                 F               0         X-component position of node 27 (blade 1, node 26), m
         80   -2.926E+01                                 F               0         Y-component position of node 27 (blade 1, node 26), m
         81    2.570E+02                                 F               0         Z-component position of node 27 (blade 1, node 26), m
         82    5.698E+01                                 F               0         X-component position of node 28 (blade 1, node 27), m
         83   -2.999E+01                                 F               0         Y-component position of node 28 (blade 1, node 27), m
         84    2.606E+02                                 F               0         Z-component position of node 28 (blade 1, node 27), m
         85    5.785E+01                                 F               0         X-component position of node 29 (blade 1, node 28), m
         86   -3.061E+01                                 F               0         Y-component position of node 29 (blade 1, node 28), m
         87    2.637E+02                                 F               0         Z-component position of node 29 (blade 1, node 28), m
         88    2.487E+01                                 F               0         X-component position of node 30 (blade 2, node 1), m
         89   -1.194E+01                                 F               0         Y-component position of node 30 (blade 2, node 1), m
         90    1.456E+02                                 F               0         Z-component position of node 30 (blade 2, node 1), m
         91    2.464E+01                                 F               0         X-component position of node 31 (blade 2, node 2), m
         92   -1.295E+01                                 F               0         Y-component position of node 31 (blade 2, node 2), m
         93    1.448E+02                                 F               0         Z-component position of node 31 (blade 2, node 2), m
         94    2.148E+01                                 F               0         X-component position of node 32 (blade 2, node 3), m
         95   -2.668E+01                                 F               0         Y-component position of node 32 (blade 2, node 3), m
         96    1.334E+02                                 F               0         Z-component position of node 32 (blade 2, node 3), m
         97    2.080E+01                                 F               0         X-component position of node 33 (blade 2, node 4), m
         98   -2.960E+01                                 F               0         Y-component position of node 33 (blade 2, node 4), m
         99    1.309E+02                                 F               0         Z-component position of node 33 (blade 2, node 4), m
        100    2.013E+01                                 F               0         X-component position of node 34 (blade 2, node 5), m
        101   -3.252E+01                                 F               0         Y-component position of node 34 (blade 2, node 5), m
        102    1.285E+02                                 F               0         Z-component position of node 34 (blade 2, node 5), m
        103    1.946E+01                                 F               0         X-component position of node 35 (blade 2, node 6), m
        104   -3.545E+01                                 F               0         Y-component position of node 35 (blade 2, node 6), m
        105    1.260E+02                                 F               0         Z-component position of node 35 (blade 2, node 6), m
        106    1.878E+01                                 F               0         X-component position of node 36 (blade 2, node 7), m
        107   -3.837E+01                                 F               0         Y-component position of node 36 (blade 2, node 7), m
        108    1.236E+02                                 F               0         Z-component position of node 36 (blade 2, node 7), m
        109    1.811E+01                                 F               0         X-component position of node 37 (blade 2, node 8), m
        110   -4.130E+01                                 F               0         Y-component position of node 37 (blade 2, node 8), m
        111    1.212E+02                                 F               0         Z-component position of node 37 (blade 2, node 8), m
        112    1.743E+01                                 F               0         X-component position of node 38 (blade 2, node 9), m
        113   -4.422E+01                                 F               0         Y-component position of node 38 (blade 2, node 9), m
        114    1.187E+02                                 F               0         Z-component position of node 38 (blade 2, node 9), m
        115    1.676E+01                                 F               0         X-component position of node 39 (blade 2, node 10), m
        116   -4.715E+01                                 F               0         Y-component position of node 39 (blade 2, node 10), m
        117    1.163E+02                                 F               0         Z-component position of node 39 (blade 2, node 10), m
        118    1.609E+01                                 F               0         X-component position of node 40 (blade 2, node 11), m
        119   -5.007E+01                                 F               0         Y-component position of node 40 (blade 2, node 11), m
        120    1.138E+02                                 F               0         Z-component position of node 40 (blade 2, node 11), m
        121    1.541E+01                                 F               0         X-component position of node 41 (blade 2, node 12), m
        122   -5.299E+01                                 F               0         Y-component position of node 41 (blade 2, node 12), m
        123    1.114E+02                                 F               0         Z-component position of node 41 (blade 2, node 12), m
        124    1.474E+01                                 F               0         X-component position of node 42 (blade 2, node 13), m
        125   -5.592E+01                                 F               0         Y-component position of node 42 (blade 2, node 13), m
        126    1.090E+02                                 F               0         Z-component position of node 42 (blade 2, node 13), m
        127    1.406E+01                                 F               0         X-component position of node 43 (blade 2, node 14), m
        128   -5.884E+01                                 F               0         Y-component position of node 43 (blade 2, node 14), m
        129    1.065E+02                                 F               0         Z-component position of node 43 (blade 2, node 14), m
        130    1.339E+01                                 F               0         X-component position of node 44 (blade 2, node 15), m
        131   -6.177E+01                                 F               0         Y-component position of node 44 (blade 2, node 15), m
        132    1.041E+02                                 F               0         Z-component position of node 44 (blade 2, node 15), m
        133    1.272E+01                                 F               0         X-component position of node 45 (blade 2, node 16), m
        134   -6.469E+01                                 F               0         Y-component position of node 45 (blade 2, node 16), m
        135    1.016E+02                                 F               0         Z-component position of node 45 (blade 2, node 16), m
        136    1.204E+01                                 F               0         X-component position of node 46 (blade 2, node 17), m
        137   -6.762E+01                                 F               0         Y-component position of node 46 (blade 2, node 17), m
        138    9.920E+01                                 F               0         Z-component position of node 46 (blade 2, node 17), m
        139    1.137E+01                                 F               0         X-component position of node 47 (blade 2, node 18), m
        140   -7.054E+01                                 F               0         Y-component position of node 47 (blade 2, node 18), m
        141    9.676E+01                                 F               0         Z-component position of node 47 (blade 2, node 18), m
        142    1.070E+01                                 F               0         X-component position of node 48 (blade 2, node 19), m
        143   -7.347E+01                                 F               0         Y-component position of node 48 (blade 2, node 19), m
        144    9.432E+01                                 F               0         Z-component position of node 48 (blade 2, node 19), m
        145    1.002E+01                                 F               0         X-component position of node 49 (blade 2, node 20), m
        146   -7.639E+01                                 F               0         Y-component position of node 49 (blade 2, node 20), m
        147    9.188E+01                                 F               0         Z-component position of node 49 (blade 2, node 20), m
        148    9.349E+00                                 F               0         X-component position of node 50 (blade 2, node 21), m
        149   -7.931E+01                                 F               0         Y-component position of node 50 (blade 2, node 21), m
        150    8.944E+01                                 F               0         Z-component position of node 50 (blade 2, node 21), m
        151    8.675E+00                                 F               0         X-component position of node 51 (blade 2, node 22), m
        152   -8.224E+01                                 F               0         Y-component position of node 51 (blade 2, node 22), m
        153    8.700E+01                                 F               0         Z-component position of node 51 (blade 2, node 22), m
        154    8.001E+00                                 F               0         X-component position of node 52 (blade 2, node 23), m
        155   -8.516E+01                                 F               0         Y-component position of node 52 (blade 2, node 23), m
        156    8.456E+01                                 F               0         Z-component position of node 52 (blade 2, node 23), m
        157    7.327E+00                                 F               0         X-component position of node 53 (blade 2, node 24), m
        158   -8.809E+01                                 F               0         Y-component position of node 53 (blade 2, node 24), m
        159    8.212E+01                                 F               0         Z-component position of node 53 (blade 2, node 24), m
        160    6.653E+00                                 F               0         X-component position of node 54 (blade 2, node 25), m
        161   -9.101E+01                                 F               0         Y-component position of node 54 (blade 2, node 25), m
        162    7.968E+01                                 F               0         Z-component position of node 54 (blade 2, node 25), m
        163    5.980E+00                                 F               0         X-component position of node 55 (blade 2, node 26), m
        164   -9.394E+01                                 F               0         Y-component position of node 55 (blade 2, node 26), m
        165    7.724E+01                                 F               0         Z-component position of node 55 (blade 2, node 26), m
        166    5.306E+00                                 F               0         X-component position of node 56 (blade 2, node 27), m
        167   -9.686E+01                                 F               0         Y-component position of node 56 (blade 2, node 27), m
        168    7.480E+01                                 F               0         Z-component position of node 56 (blade 2, node 27), m
        169    4.735E+00                                 F               0         X-component position of node 57 (blade 2, node 28), m
        170   -9.934E+01                                 F               0         Y-component position of node 57 (blade 2, node 28), m
        171    7.273E+01                                 F               0         Z-component position of node 57 (blade 2, node 28), m
        172    2.534E+01                                 F               0         X-component position of node 58 (blade 3, node 1), m
        173   -2.518E+00                                 F               0         Y-component position of node 58 (blade 3, node 1), m
        174    1.474E+02                                 F               0         Z-component position of node 58 (blade 3, node 1), m
        175    2.522E+01                                 F               0         X-component position of node 59 (blade 3, node 2), m
        176   -1.256E+00                                 F               0         Y-component position of node 59 (blade 3, node 2), m
        177    1.470E+02                                 F               0         Z-component position of node 59 (blade 3, node 2), m
        178    2.358E+01                                 F               0         X-component position of node 60 (blade 3, node 3), m
        179    1.589E+01                                 F               0         Y-component position of node 60 (blade 3, node 3), m
        180    1.413E+02                                 F               0         Z-component position of node 60 (blade 3, node 3), m
        181    2.323E+01                                 F               0         X-component position of node 61 (blade 3, node 4), m
        182    1.955E+01                                 F               0         Y-component position of node 61 (blade 3, node 4), m
        183    1.400E+02                                 F               0         Z-component position of node 61 (blade 3, node 4), m
        184    2.289E+01                                 F               0         X-component position of node 62 (blade 3, node 5), m
        185    2.320E+01                                 F               0         Y-component position of node 62 (blade 3, node 5), m
        186    1.388E+02                                 F               0         Z-component position of node 62 (blade 3, node 5), m
        187    2.254E+01                                 F               0         X-component position of node 63 (blade 3, node 6), m
        188    2.686E+01                                 F               0         Y-component position of node 63 (blade 3, node 6), m
        189    1.376E+02                                 F               0         Z-component position of node 63 (blade 3, node 6), m
        190    2.219E+01                                 F               0         X-component position of node 64 (blade 3, node 7), m
        191    3.051E+01                                 F               0         Y-component position of node 64 (blade 3, node 7), m
        192    1.364E+02                                 F               0         Z-component position of node 64 (blade 3, node 7), m
        193    2.184E+01                                 F               0         X-component position of node 65 (blade 3, node 8), m
        194    3.417E+01                                 F               0         Y-component position of node 65 (blade 3, node 8), m
        195    1.352E+02                                 F               0         Z-component position of node 65 (blade 3, node 8), m
        196    2.149E+01                                 F               0         X-component position of node 66 (blade 3, node 9), m
        197    3.782E+01                                 F               0         Y-component position of node 66 (blade 3, node 9), m
        198    1.339E+02                                 F               0         Z-component position of node 66 (blade 3, node 9), m
        199    2.115E+01                                 F               0         X-component position of node 67 (blade 3, node 10), m
        200    4.147E+01                                 F               0         Y-component position of node 67 (blade 3, node 10), m
        201    1.327E+02                                 F               0         Z-component position of node 67 (blade 3, node 10), m
        202    2.080E+01                                 F               0         X-component position of node 68 (blade 3, node 11), m
        203    4.513E+01                                 F               0         Y-component position of node 68 (blade 3, node 11), m
        204    1.315E+02                                 F               0         Z-component position of node 68 (blade 3, node 11), m
        205    2.045E+01                                 F               0         X-component position of node 69 (blade 3, node 12), m
        206    4.878E+01                                 F               0         Y-component position of node 69 (blade 3, node 12), m
        207    1.303E+02                                 F               0         Z-component position of node 69 (blade 3, node 12), m
        208    2.010E+01                                 F               0         X-component position of node 70 (blade 3, node 13), m
        209    5.244E+01                                 F               0         Y-component position of node 70 (blade 3, node 13), m
        210    1.291E+02                                 F               0         Z-component position of node 70 (blade 3, node 13), m
        211    1.975E+01                                 F               0         X-component position of node 71 (blade 3, node 14), m