
Linearized model: Predictions were generated on 06-Feb-2024 at 16:18:08 using OpenFAST, compiled as a 64-bit application using single precision at commit v3.5.1
 linked with  NWTC Subroutine Library; ElastoDyn; InflowWind; AeroDyn; ServoDyn; HydroDyn; MAP++ (<1.20.10>, <Oct-20-2023>)

Description from the FAST input file: CCT-9 Campign 4 model. Input files to be run with OpenFAST 3.5.0. GitHub branch from Lu Wang (https://github.com/luwang00/openfast/tree/dev) compiled on March 7, 2023.

Simulation information:
   Simulation time:                  1003.7500 s
   Rotor Speed:                         1.0420 rad/s
   Azimuth:                             5.4080 rad
   Wind Speed:                         12.0000 m/s
   Number of continuous states:         0
   Number of discrete states:           0
   Number of constraint states:         0
   Number of inputs:                  303
   Number of outputs:                   1
   Jacobians included in this file?    No

Order of inputs:
     Column   Operating Point                     Rotating Frame? Derivative Order Description
   ---------- ---------------                     --------------- ---------------- -----------
          1   -1.080E+01                                 F               0         X-component position of node 1 (hub), m
          2    0.000E+00                                 F               0         Y-component position of node 1 (hub), m
          3    1.497E+02                                 F               0         Z-component position of node 1 (hub), m
          4    2.684E+01                                 F               0         X-component position of node 2 (blade 1, node 1), m
          5   -3.679E+00                                 F               0         Y-component position of node 2 (blade 1, node 1), m
          6    1.528E+02                                 F               0         Z-component position of node 2 (blade 1, node 1), m
          7    2.708E+01                                 F               0         X-component position of node 3 (blade 1, node 2), m
          8   -2.698E+00                                 F               0         Y-component position of node 3 (blade 1, node 2), m
          9    1.536E+02                                 F               0         Z-component position of node 3 (blade 1, node 2), m
         10    3.035E+01                                 F               0         X-component position of node 4 (blade 1, node 3), m
         11    1.065E+01                                 F               0         Y-component position of node 4 (blade 1, node 3), m
         12    1.655E+02                                 F               0         Z-component position of node 4 (blade 1, node 3), m
         13    3.105E+01                                 F               0         X-component position of node 5 (blade 1, node 4), m
         14    1.349E+01                                 F               0         Y-component position of node 5 (blade 1, node 4), m
         15    1.680E+02                                 F               0         Z-component position of node 5 (blade 1, node 4), m
         16    3.175E+01                                 F               0         X-component position of node 6 (blade 1, node 5), m
         17    1.634E+01                                 F               0         Y-component position of node 6 (blade 1, node 5), m
         18    1.705E+02                                 F               0         Z-component position of node 6 (blade 1, node 5), m
         19    3.245E+01                                 F               0         X-component position of node 7 (blade 1, node 6), m
         20    1.918E+01                                 F               0         Y-component position of node 7 (blade 1, node 6), m
         21    1.731E+02                                 F               0         Z-component position of node 7 (blade 1, node 6), m
         22    3.315E+01                                 F               0         X-component position of node 8 (blade 1, node 7), m
         23    2.202E+01                                 F               0         Y-component position of node 8 (blade 1, node 7), m
         24    1.756E+02                                 F               0         Z-component position of node 8 (blade 1, node 7), m
         25    3.385E+01                                 F               0         X-component position of node 9 (blade 1, node 8), m
         26    2.487E+01                                 F               0         Y-component position of node 9 (blade 1, node 8), m
         27    1.781E+02                                 F               0         Z-component position of node 9 (blade 1, node 8), m
         28    3.454E+01                                 F               0         X-component position of node 10 (blade 1, node 9), m
         29    2.771E+01                                 F               0         Y-component position of node 10 (blade 1, node 9), m
         30    1.807E+02                                 F               0         Z-component position of node 10 (blade 1, node 9), m
         31    3.524E+01                                 F               0         X-component position of node 11 (blade 1, node 10), m
         32    3.055E+01                                 F               0         Y-component position of node 11 (blade 1, node 10), m
         33    1.832E+02                                 F               0         Z-component position of node 11 (blade 1, node 10), m
         34    3.594E+01                                 F               0         X-component position of node 12 (blade 1, node 11), m
         35    3.340E+01                                 F               0         Y-component position of node 12 (blade 1, node 11), m
         36    1.857E+02                                 F               0         Z-component position of node 12 (blade 1, node 11), m
         37    3.664E+01                                 F               0         X-component position of node 13 (blade 1, node 12), m
         38    3.624E+01                                 F               0         Y-component position of node 13 (blade 1, node 12), m
         39    1.882E+02                                 F               0         Z-component position of node 13 (blade 1, node 12), m
         40    3.734E+01                                 F               0         X-component position of node 14 (blade 1, node 13), m
         41    3.909E+01                                 F               0         Y-component position of node 14 (blade 1, node 13), m
         42    1.908E+02                                 F               0         Z-component position of node 14 (blade 1, node 13), m
         43    3.803E+01                                 F               0         X-component position of node 15 (blade 1, node 14), m
         44    4.193E+01                                 F               0         Y-component position of node 15 (blade 1, node 14), m
         45    1.933E+02                                 F               0         Z-component position of node 15 (blade 1, node 14), m
         46    3.873E+01                                 F               0         X-component position of node 16 (blade 1, node 15), m
         47    4.477E+01                                 F               0         Y-component position of node 16 (blade 1, node 15), m
         48    1.958E+02                                 F               0         Z-component position of node 16 (blade 1, node 15), m
         49    3.943E+01                                 F               0         X-component position of node 17 (blade 1, node 16), m
         50    4.762E+01                                 F               0         Y-component position of node 17 (blade 1, node 16), m
         51    1.983E+02                                 F               0         Z-component position of node 17 (blade 1, node 16), m
         52    4.013E+01                                 F               0         X-component position of node 18 (blade 1, node 17), m
         53    5.046E+01                                 F               0         Y-component position of node 18 (blade 1, node 17), m
         54    2.009E+02                                 F               0         Z-component position of node 18 (blade 1, node 17), m
         55    4.083E+01                                 F               0         X-component position of node 19 (blade 1, node 18), m
         56    5.330E+01                                 F               0         Y-component position of node 19 (blade 1, node 18), m
         57    2.034E+02                                 F               0         Z-component position of node 19 (blade 1, node 18), m
         58    4.153E+01                                 F               0         X-component position of node 20 (blade 1, node 19), m
         59    5.615E+01                                 F               0         Y-component position of node 20 (blade 1, node 19), m
         60    2.059E+02                                 F               0         Z-component position of node 20 (blade 1, node 19), m
         61    4.222E+01                                 F               0         X-component position of node 21 (blade 1, node 20), m
         62    5.899E+01                                 F               0         Y-component position of node 21 (blade 1, node 20), m
         63    2.084E+02                                 F               0         Z-component position of node 21 (blade 1, node 20), m
         64    4.292E+01                                 F               0         X-component position of node 22 (blade 1, node 21), m
         65    6.184E+01                                 F               0         Y-component position of node 22 (blade 1, node 21), m
         66    2.110E+02                                 F               0         Z-component position of node 22 (blade 1, node 21), m
         67    4.362E+01                                 F               0         X-component position of node 23 (blade 1, node 22), m
         68    6.468E+01                                 F               0         Y-component position of node 23 (blade 1, node 22), m
         69    2.135E+02                                 F               0         Z-component position of node 23 (blade 1, node 22), m
         70    4.432E+01                                 F               0         X-component position of node 24 (blade 1, node 23), m
         71    6.752E+01                                 F               0         Y-component position of node 24 (blade 1, node 23), m
         72    2.160E+02                                 F               0         Z-component position of node 24 (blade 1, node 23), m
         73    4.502E+01                                 F               0         X-component position of node 25 (blade 1, node 24), m
         74    7.037E+01                                 F               0         Y-component position of node 25 (blade 1, node 24), m
         75    2.186E+02                                 F               0         Z-component position of node 25 (blade 1, node 24), m
         76    4.571E+01                                 F               0         X-component position of node 26 (blade 1, node 25), m
         77    7.321E+01                                 F               0         Y-component position of node 26 (blade 1, node 25), m
         78    2.211E+02                                 F               0         Z-component position of node 26 (blade 1, node 25), m
         79    4.641E+01                                 F               0         X-component position of node 27 (blade 1, node 26), m
         80    7.605E+01                                 F               0         Y-component position of node 27 (blade 1, node 26), m
         81    2.236E+02                                 F               0         Z-component position of node 27 (blade 1, node 26), m
         82    4.711E+01                                 F               0         X-component position of node 28 (blade 1, node 27), m
         83    7.890E+01                                 F               0         Y-component position of node 28 (blade 1, node 27), m
         84    2.261E+02                                 F               0         Z-component position of node 28 (blade 1, node 27), m
         85    4.770E+01                                 F               0         X-component position of node 29 (blade 1, node 28), m
         86    8.131E+01                                 F               0         Y-component position of node 29 (blade 1, node 28), m
         87    2.283E+02                                 F               0         Z-component position of node 29 (blade 1, node 28), m
         88    2.629E+01                                 F               0         X-component position of node 30 (blade 2, node 1), m
         89   -1.304E+01                                 F               0         Y-component position of node 30 (blade 2, node 1), m
         90    1.507E+02                                 F               0         Z-component position of node 30 (blade 2, node 1), m
         91    2.640E+01                                 F               0         X-component position of node 31 (blade 2, node 2), m
         92   -1.432E+01                                 F               0         Y-component position of node 31 (blade 2, node 2), m
         93    1.511E+02                                 F               0         Z-component position of node 31 (blade 2, node 2), m
         94    2.789E+01                                 F               0         X-component position of node 32 (blade 2, node 3), m
         95   -3.164E+01                                 F               0         Y-component position of node 32 (blade 2, node 3), m
         96    1.563E+02                                 F               0         Z-component position of node 32 (blade 2, node 3), m
         97    2.821E+01                                 F               0         X-component position of node 33 (blade 2, node 4), m
         98   -3.534E+01                                 F               0         Y-component position of node 33 (blade 2, node 4), m
         99    1.574E+02                                 F               0         Z-component position of node 33 (blade 2, node 4), m
        100    2.853E+01                                 F               0         X-component position of node 34 (blade 2, node 5), m
        101   -3.903E+01                                 F               0         Y-component position of node 34 (blade 2, node 5), m
        102    1.585E+02                                 F               0         Z-component position of node 34 (blade 2, node 5), m
        103    2.884E+01                                 F               0         X-component position of node 35 (blade 2, node 6), m
        104   -4.272E+01                                 F               0         Y-component position of node 35 (blade 2, node 6), m
        105    1.596E+02                                 F               0         Z-component position of node 35 (blade 2, node 6), m
        106    2.916E+01                                 F               0         X-component position of node 36 (blade 2, node 7), m
        107   -4.641E+01                                 F               0         Y-component position of node 36 (blade 2, node 7), m
        108    1.607E+02                                 F               0         Z-component position of node 36 (blade 2, node 7), m
        109    2.948E+01                                 F               0         X-component position of node 37 (blade 2, node 8), m
        110   -5.011E+01                                 F               0         Y-component position of node 37 (blade 2, node 8), m
        111    1.618E+02                                 F               0         Z-component position of node 37 (blade 2, node 8), m
        112    2.980E+01                                 F               0         X-component position of node 38 (blade 2, node 9), m
        113   -5.380E+01                                 F               0         Y-component position of node 38 (blade 2, node 9), m
        114    1.630E+02                                 F               0         Z-component position of node 38 (blade 2, node 9), m
        115    3.011E+01                                 F               0         X-component position of node 39 (blade 2, node 10), m
        116   -5.749E+01                                 F               0         Y-component position of node 39 (blade 2, node 10), m
        117    1.641E+02                                 F               0         Z-component position of node 39 (blade 2, node 10), m
        118    3.043E+01                                 F               0         X-component position of node 40 (blade 2, node 11), m
        119   -6.118E+01                                 F               0         Y-component position of node 40 (blade 2, node 11), m
        120    1.652E+02                                 F               0         Z-component position of node 40 (blade 2, node 11), m
        121    3.075E+01                                 F               0         X-component position of node 41 (blade 2, node 12), m
        122   -6.487E+01                                 F               0         Y-component position of node 41 (blade 2, node 12), m
        123    1.663E+02                                 F               0         Z-component position of node 41 (blade 2, node 12), m
        124    3.106E+01                                 F               0         X-component position of node 42 (blade 2, node 13), m
        125   -6.857E+01                                 F               0         Y-component position of node 42 (blade 2, node 13), m
        126    1.674E+02                                 F               0         Z-component position of node 42 (blade 2, node 13), m
        127    3.138E+01                                 F               0         X-component position of node 43 (blade 2, node 14), m
        128   -7.226E+01                                 F               0         Y-component position of node 43 (blade 2, node 14), m
        129    1.685E+02                                 F               0         Z-component position of node 43 (blade 2, node 14), m
        130    3.170E+01                                 F               0         X-component position of node 44 (blade 2, node 15), m
        131   -7.595E+01                                 F               0         Y-component position of node 44 (blade 2, node 15), m
        132    1.696E+02                                 F               0         Z-component position of node 44 (blade 2, node 15), m
        133    3.202E+01                                 F               0         X-component position of node 45 (blade 2, node 16), m
        134   -7.964E+01                                 F               0         Y-component position of node 45 (blade 2, node 16), m
        135    1.707E+02                                 F               0         Z-component position of node 45 (blade 2, node 16), m
        136    3.233E+01                                 F               0         X-component position of node 46 (blade 2, node 17), m
        137   -8.333E+01                                 F               0         Y-component position of node 46 (blade 2, node 17), m
        138    1.718E+02                                 F               0         Z-component position of node 46 (blade 2, node 17), m
        139    3.265E+01                                 F               0         X-component position of node 47 (blade 2, node 18), m
        140   -8.703E+01                                 F               0         Y-component position of node 47 (blade 2, node 18), m
        141    1.729E+02                                 F               0         Z-component position of node 47 (blade 2, node 18), m
        142    3.297E+01                                 F               0         X-component position of node 48 (blade 2, node 19), m
        143   -9.072E+01                                 F               0         Y-component position of node 48 (blade 2, node 19), m
        144    1.740E+02                                 F               0         Z-component position of node 48 (blade 2, node 19), m
        145    3.329E+01                                 F               0         X-component position of node 49 (blade 2, node 20), m
        146   -9.441E+01                                 F               0         Y-component position of node 49 (blade 2, node 20), m
        147    1.751E+02                                 F               0         Z-component position of node 49 (blade 2, node 20), m
        148    3.360E+01                                 F               0         X-component position of node 50 (blade 2, node 21), m
        149   -9.810E+01                                 F               0         Y-component position of node 50 (blade 2, node 21), m
        150    1.762E+02                                 F               0         Z-component position of node 50 (blade 2, node 21), m
        151    3.392E+01                                 F               0         X-component position of node 51 (blade 2, node 22), m
        152   -1.018E+02                                 F               0         Y-component position of node 51 (blade 2, node 22), m
        153    1.773E+02                                 F               0         Z-component position of node 51 (blade 2, node 22), m
        154    3.424E+01                                 F               0         X-component position of node 52 (blade 2, node 23), m
        155   -1.055E+02                                 F               0         Y-component position of node 52 (blade 2, node 23), m
        156    1.785E+02                                 F               0         Z-component position of node 52 (blade 2, node 23), m
        157    3.456E+01                                 F               0         X-component position of node 53 (blade 2, node 24), m
        158   -1.092E+02                                 F               0         Y-component position of node 53 (blade 2, node 24), m
        159    1.796E+02                                 F               0         Z-component position of node 53 (blade 2, node 24), m
        160    3.487E+01                                 F               0         X-component position of node 54 (blade 2, node 25), m
        161   -1.129E+02                                 F               0         Y-component position of node 54 (blade 2, node 25), m
        162    1.807E+02                                 F               0         Z-component position of node 54 (blade 2, node 25), m
        163    3.519E+01                                 F               0         X-component position of node 55 (blade 2, node 26), m
        164   -1.166E+02                                 F               0         Y-component position of node 55 (blade 2, node 26), m
        165    1.818E+02                                 F               0         Z-component position of node 55 (blade 2, node 26), m
        166    3.551E+01                                 F               0         X-component position of node 56 (blade 2, node 27), m
        167   -1.203E+02                                 F               0         Y-component position of node 56 (blade 2, node 27), m
        168    1.829E+02                                 F               0         Z-component position of node 56 (blade 2, node 27), m
        169    3.578E+01                                 F               0         X-component position of node 57 (blade 2, node 28), m
        170   -1.234E+02                                 F               0         Y-component position of node 57 (blade 2, node 28), m
        171    1.838E+02                                 F               0         Z-component position of node 57 (blade 2, node 28), m
        172    2.438E+01                                 F               0         X-component position of node 58 (blade 3, node 1), m
        173   -6.537E+00                                 F               0         Y-component position of node 58 (blade 3, node 1), m
        174    1.439E+02                                 F               0         Z-component position of node 58 (blade 3, node 1), m
        175    2.403E+01                                 F               0         X-component position of node 59 (blade 3, node 2), m
        176   -6.244E+00                                 F               0         Y-component position of node 59 (blade 3, node 2), m
        177    1.427E+02                                 F               0         Z-component position of node 59 (blade 3, node 2), m
        178    1.926E+01                                 F               0         X-component position of node 60 (blade 3, node 3), m
        179   -2.262E+00                                 F               0         Y-component position of node 60 (blade 3, node 3), m
        180    1.256E+02                                 F               0         Z-component position of node 60 (blade 3, node 3), m
        181    1.825E+01                                 F               0         X-component position of node 61 (blade 3, node 4), m
        182   -1.414E+00                                 F               0         Y-component position of node 61 (blade 3, node 4), m
        183    1.220E+02                                 F               0         Z-component position of node 61 (blade 3, node 4), m
        184    1.723E+01                                 F               0         X-component position of node 62 (blade 3, node 5), m
        185   -5.655E-01                                 F               0         Y-component position of node 62 (blade 3, node 5), m
        186    1.184E+02                                 F               0         Z-component position of node 62 (blade 3, node 5), m
        187    1.622E+01                                 F               0         X-component position of node 63 (blade 3, node 6), m
        188    2.829E-01                                 F               0         Y-component position of node 63 (blade 3, node 6), m
        189    1.147E+02                                 F               0         Z-component position of node 63 (blade 3, node 6), m
        190    1.520E+01                                 F               0         X-component position of node 64 (blade 3, node 7), m
        191    1.131E+00                                 F               0         Y-component position of node 64 (blade 3, node 7), m
        192    1.111E+02                                 F               0         Z-component position of node 64 (blade 3, node 7), m
        193    1.419E+01                                 F               0         X-component position of node 65 (blade 3, node 8), m
        194    1.980E+00                                 F               0         Y-component position of node 65 (blade 3, node 8), m
        195    1.075E+02                                 F               0         Z-component position of node 65 (blade 3, node 8), m
        196    1.317E+01                                 F               0         X-component position of node 66 (blade 3, node 9), m
        197    2.828E+00                                 F               0         Y-component position of node 66 (blade 3, node 9), m
        198    1.038E+02                                 F               0         Z-component position of node 66 (blade 3, node 9), m
        199    1.216E+01                                 F               0         X-component position of node 67 (blade 3, node 10), m
        200    3.677E+00                                 F               0         Y-component position of node 67 (blade 3, node 10), m
        201    1.002E+02                                 F               0         Z-component position of node 67 (blade 3, node 10), m
        202    1.114E+01                                 F               0         X-component position of node 68 (blade 3, node 11), m
        203    4.525E+00                                 F               0         Y-component position of node 68 (blade 3, node 11), m
        204    9.655E+01                                 F               0         Z-component position of node 68 (blade 3, node 11), m
        205    1.012E+01                                 F               0         X-component position of node 69 (blade 3, node 12), m
        206    5.374E+00                                 F               0         Y-component position of node 69 (blade 3, node 12), m
        207    9.291E+01                                 F               0         Z-component position of node 69 (blade 3, node 12), m
        208    9.108E+00                                 F               0         X-component position of node 70 (blade 3, node 13), m
        209    6.222E+00                                 F               0         Y-component position of node 70 (blade 3, node 13), m
        210    8.928E+01                                 F               0         Z-component position of node 70 (blade 3, node 13), m
        211    8.093E+00                                 F               0         X-component position of node 71 (blade 3, node 14), m