
Linearized model: Predictions were generated on 06-Feb-2024 at 16:18:08 using OpenFAST, compiled as a 64-bit application using single precision at commit v3.5.1
 linked with  NWTC Subroutine Library; ElastoDyn; InflowWind; AeroDyn; ServoDyn; HydroDyn; MAP++ (<1.20.10>, <Oct-20-2023>)

Description from the FAST input file: CCT-9 Campign 4 model. Input files to be run with OpenFAST 3.5.0. GitHub branch from Lu Wang (https://github.com/luwang00/openfast/tree/dev) compiled on March 7, 2023.

Simulation information:
   Simulation time:                  1000.5000 s
   Rotor Speed:                         1.0419 rad/s
   Azimuth:                             2.0214 rad
   Wind Speed:                         12.0000 m/s
   Number of continuous states:         0
   Number of discrete states:           0
   Number of constraint states:         0
   Number of inputs:                  303
   Number of outputs:                   1
   Jacobians included in this file?    No

Order of inputs:
     Column   Operating Point                     Rotating Frame? Derivative Order Description
   ---------- ---------------                     --------------- ---------------- -----------
          1   -1.080E+01                                 F               0         X-component position of node 1 (hub), m
          2    0.000E+00                                 F               0         Y-component position of node 1 (hub), m
          3    1.497E+02                                 F               0         Z-component position of node 1 (hub), m
          4    2.513E+01                                 F               0         X-component position of node 2 (blade 1, node 1), m
          5   -1.261E+01                                 F               0         Y-component position of node 2 (blade 1, node 1), m
          6    1.466E+02                                 F               0         Z-component position of node 2 (blade 1, node 1), m
          7    2.496E+01                                 F               0         X-component position of node 3 (blade 1, node 2), m
          8   -1.378E+01                                 F               0         Y-component position of node 3 (blade 1, node 2), m
          9    1.460E+02                                 F               0         Z-component position of node 3 (blade 1, node 2), m
         10    2.266E+01                                 F               0         X-component position of node 4 (blade 1, node 3), m
         11   -2.971E+01                                 F               0         Y-component position of node 4 (blade 1, node 3), m
         12    1.376E+02                                 F               0         Z-component position of node 4 (blade 1, node 3), m
         13    2.217E+01                                 F               0         X-component position of node 5 (blade 1, node 4), m
         14   -3.311E+01                                 F               0         Y-component position of node 5 (blade 1, node 4), m
         15    1.358E+02                                 F               0         Z-component position of node 5 (blade 1, node 4), m
         16    2.168E+01                                 F               0         X-component position of node 6 (blade 1, node 5), m
         17   -3.650E+01                                 F               0         Y-component position of node 6 (blade 1, node 5), m
         18    1.340E+02                                 F               0         Z-component position of node 6 (blade 1, node 5), m
         19    2.119E+01                                 F               0         X-component position of node 7 (blade 1, node 6), m
         20   -3.990E+01                                 F               0         Y-component position of node 7 (blade 1, node 6), m
         21    1.322E+02                                 F               0         Z-component position of node 7 (blade 1, node 6), m
         22    2.070E+01                                 F               0         X-component position of node 8 (blade 1, node 7), m
         23   -4.329E+01                                 F               0         Y-component position of node 8 (blade 1, node 7), m
         24    1.304E+02                                 F               0         Z-component position of node 8 (blade 1, node 7), m
         25    2.021E+01                                 F               0         X-component position of node 9 (blade 1, node 8), m
         26   -4.669E+01                                 F               0         Y-component position of node 9 (blade 1, node 8), m
         27    1.286E+02                                 F               0         Z-component position of node 9 (blade 1, node 8), m
         28    1.972E+01                                 F               0         X-component position of node 10 (blade 1, node 9), m
         29   -5.008E+01                                 F               0         Y-component position of node 10 (blade 1, node 9), m
         30    1.269E+02                                 F               0         Z-component position of node 10 (blade 1, node 9), m
         31    1.923E+01                                 F               0         X-component position of node 11 (blade 1, node 10), m
         32   -5.348E+01                                 F               0         Y-component position of node 11 (blade 1, node 10), m
         33    1.251E+02                                 F               0         Z-component position of node 11 (blade 1, node 10), m
         34    1.874E+01                                 F               0         X-component position of node 12 (blade 1, node 11), m
         35   -5.687E+01                                 F               0         Y-component position of node 12 (blade 1, node 11), m
         36    1.233E+02                                 F               0         Z-component position of node 12 (blade 1, node 11), m
         37    1.825E+01                                 F               0         X-component position of node 13 (blade 1, node 12), m
         38   -6.027E+01                                 F               0         Y-component position of node 13 (blade 1, node 12), m
         39    1.215E+02                                 F               0         Z-component position of node 13 (blade 1, node 12), m
         40    1.776E+01                                 F               0         X-component position of node 14 (blade 1, node 13), m
         41   -6.366E+01                                 F               0         Y-component position of node 14 (blade 1, node 13), m
         42    1.197E+02                                 F               0         Z-component position of node 14 (blade 1, node 13), m
         43    1.727E+01                                 F               0         X-component position of node 15 (blade 1, node 14), m
         44   -6.706E+01                                 F               0         Y-component position of node 15 (blade 1, node 14), m
         45    1.179E+02                                 F               0         Z-component position of node 15 (blade 1, node 14), m
         46    1.677E+01                                 F               0         X-component position of node 16 (blade 1, node 15), m
         47   -7.045E+01                                 F               0         Y-component position of node 16 (blade 1, node 15), m
         48    1.161E+02                                 F               0         Z-component position of node 16 (blade 1, node 15), m
         49    1.628E+01                                 F               0         X-component position of node 17 (blade 1, node 16), m
         50   -7.385E+01                                 F               0         Y-component position of node 17 (blade 1, node 16), m
         51    1.143E+02                                 F               0         Z-component position of node 17 (blade 1, node 16), m
         52    1.579E+01                                 F               0         X-component position of node 18 (blade 1, node 17), m
         53   -7.724E+01                                 F               0         Y-component position of node 18 (blade 1, node 17), m
         54    1.126E+02                                 F               0         Z-component position of node 18 (blade 1, node 17), m
         55    1.530E+01                                 F               0         X-component position of node 19 (blade 1, node 18), m
         56   -8.064E+01                                 F               0         Y-component position of node 19 (blade 1, node 18), m
         57    1.108E+02                                 F               0         Z-component position of node 19 (blade 1, node 18), m
         58    1.481E+01                                 F               0         X-component position of node 20 (blade 1, node 19), m
         59   -8.403E+01                                 F               0         Y-component position of node 20 (blade 1, node 19), m
         60    1.090E+02                                 F               0         Z-component position of node 20 (blade 1, node 19), m
         61    1.432E+01                                 F               0         X-component position of node 21 (blade 1, node 20), m
         62   -8.742E+01                                 F               0         Y-component position of node 21 (blade 1, node 20), m
         63    1.072E+02                                 F               0         Z-component position of node 21 (blade 1, node 20), m
         64    1.383E+01                                 F               0         X-component position of node 22 (blade 1, node 21), m
         65   -9.082E+01                                 F               0         Y-component position of node 22 (blade 1, node 21), m
         66    1.054E+02                                 F               0         Z-component position of node 22 (blade 1, node 21), m
         67    1.334E+01                                 F               0         X-component position of node 23 (blade 1, node 22), m
         68   -9.421E+01                                 F               0         Y-component position of node 23 (blade 1, node 22), m
         69    1.036E+02                                 F               0         Z-component position of node 23 (blade 1, node 22), m
         70    1.285E+01                                 F               0         X-component position of node 24 (blade 1, node 23), m
         71   -9.761E+01                                 F               0         Y-component position of node 24 (blade 1, node 23), m
         72    1.018E+02                                 F               0         Z-component position of node 24 (blade 1, node 23), m
         73    1.236E+01                                 F               0         X-component position of node 25 (blade 1, node 24), m
         74   -1.010E+02                                 F               0         Y-component position of node 25 (blade 1, node 24), m
         75    1.000E+02                                 F               0         Z-component position of node 25 (blade 1, node 24), m
         76    1.187E+01                                 F               0         X-component position of node 26 (blade 1, node 25), m
         77   -1.044E+02                                 F               0         Y-component position of node 26 (blade 1, node 25), m
         78    9.826E+01                                 F               0         Z-component position of node 26 (blade 1, node 25), m
         79    1.138E+01                                 F               0         X-component position of node 27 (blade 1, node 26), m
         80   -1.078E+02                                 F               0         Y-component position of node 27 (blade 1, node 26), m
         81    9.647E+01                                 F               0         Z-component position of node 27 (blade 1, node 26), m
         82    1.089E+01                                 F               0         X-component position of node 28 (blade 1, node 27), m
         83   -1.112E+02                                 F               0         Y-component position of node 28 (blade 1, node 27), m
         84    9.469E+01                                 F               0         Z-component position of node 28 (blade 1, node 27), m
         85    1.047E+01                                 F               0         X-component position of node 29 (blade 1, node 28), m
         86   -1.141E+02                                 F               0         Y-component position of node 29 (blade 1, node 28), m
         87    9.317E+01                                 F               0         Z-component position of node 29 (blade 1, node 28), m
         88    2.505E+01                                 F               0         X-component position of node 30 (blade 2, node 1), m
         89   -3.016E+00                                 F               0         Y-component position of node 30 (blade 2, node 1), m
         90    1.464E+02                                 F               0         Z-component position of node 30 (blade 2, node 1), m
         91    2.486E+01                                 F               0         X-component position of node 31 (blade 2, node 2), m
         92   -1.877E+00                                 F               0         Y-component position of node 31 (blade 2, node 2), m
         93    1.457E+02                                 F               0         Z-component position of node 31 (blade 2, node 2), m
         94    2.229E+01                                 F               0         X-component position of node 32 (blade 2, node 3), m
         95    1.362E+01                                 F               0         Y-component position of node 32 (blade 2, node 3), m
         96    1.366E+02                                 F               0         Z-component position of node 32 (blade 2, node 3), m
         97    2.174E+01                                 F               0         X-component position of node 33 (blade 2, node 4), m
         98    1.692E+01                                 F               0         Y-component position of node 33 (blade 2, node 4), m
         99    1.347E+02                                 F               0         Z-component position of node 33 (blade 2, node 4), m
        100    2.119E+01                                 F               0         X-component position of node 34 (blade 2, node 5), m
        101    2.023E+01                                 F               0         Y-component position of node 34 (blade 2, node 5), m
        102    1.327E+02                                 F               0         Z-component position of node 34 (blade 2, node 5), m
        103    2.065E+01                                 F               0         X-component position of node 35 (blade 2, node 6), m
        104    2.353E+01                                 F               0         Y-component position of node 35 (blade 2, node 6), m
        105    1.308E+02                                 F               0         Z-component position of node 35 (blade 2, node 6), m
        106    2.010E+01                                 F               0         X-component position of node 36 (blade 2, node 7), m
        107    2.683E+01                                 F               0         Y-component position of node 36 (blade 2, node 7), m
        108    1.289E+02                                 F               0         Z-component position of node 36 (blade 2, node 7), m
        109    1.955E+01                                 F               0         X-component position of node 37 (blade 2, node 8), m
        110    3.013E+01                                 F               0         Y-component position of node 37 (blade 2, node 8), m
        111    1.269E+02                                 F               0         Z-component position of node 37 (blade 2, node 8), m
        112    1.900E+01                                 F               0         X-component position of node 38 (blade 2, node 9), m
        113    3.344E+01                                 F               0         Y-component position of node 38 (blade 2, node 9), m
        114    1.250E+02                                 F               0         Z-component position of node 38 (blade 2, node 9), m
        115    1.845E+01                                 F               0         X-component position of node 39 (blade 2, node 10), m
        116    3.674E+01                                 F               0         Y-component position of node 39 (blade 2, node 10), m
        117    1.230E+02                                 F               0         Z-component position of node 39 (blade 2, node 10), m
        118    1.791E+01                                 F               0         X-component position of node 40 (blade 2, node 11), m
        119    4.004E+01                                 F               0         Y-component position of node 40 (blade 2, node 11), m
        120    1.211E+02                                 F               0         Z-component position of node 40 (blade 2, node 11), m
        121    1.736E+01                                 F               0         X-component position of node 41 (blade 2, node 12), m
        122    4.334E+01                                 F               0         Y-component position of node 41 (blade 2, node 12), m
        123    1.192E+02                                 F               0         Z-component position of node 41 (blade 2, node 12), m
        124    1.681E+01                                 F               0         X-component position of node 42 (blade 2, node 13), m
        125    4.665E+01                                 F               0         Y-component position of node 42 (blade 2, node 13), m
        126    1.172E+02                                 F               0         Z-component position of node 42 (blade 2, node 13), m
        127    1.626E+01                                 F               0         X-component position of node 43 (blade 2, node 14), m
        128    4.995E+01                                 F               0         Y-component position of node 43 (blade 2, node 14), m
        129    1.153E+02                                 F               0         Z-component position of node 43 (blade 2, node 14), m
        130    1.571E+01                                 F               0         X-component position of node 44 (blade 2, node 15), m
        131    5.325E+01                                 F               0         Y-component position of node 44 (blade 2, node 15), m
        132    1.134E+02                                 F               0         Z-component position of node 44 (blade 2, node 15), m
        133    1.517E+01                                 F               0         X-component position of node 45 (blade 2, node 16), m
        134    5.655E+01                                 F               0         Y-component position of node 45 (blade 2, node 16), m
        135    1.114E+02                                 F               0         Z-component position of node 45 (blade 2, node 16), m
        136    1.462E+01                                 F               0         X-component position of node 46 (blade 2, node 17), m
        137    5.986E+01                                 F               0         Y-component position of node 46 (blade 2, node 17), m
        138    1.095E+02                                 F               0         Z-component position of node 46 (blade 2, node 17), m
        139    1.407E+01                                 F               0         X-component position of node 47 (blade 2, node 18), m
        140    6.316E+01                                 F               0         Y-component position of node 47 (blade 2, node 18), m
        141    1.075E+02                                 F               0         Z-component position of node 47 (blade 2, node 18), m
        142    1.352E+01                                 F               0         X-component position of node 48 (blade 2, node 19), m
        143    6.646E+01                                 F               0         Y-component position of node 48 (blade 2, node 19), m
        144    1.056E+02                                 F               0         Z-component position of node 48 (blade 2, node 19), m
        145    1.297E+01                                 F               0         X-component position of node 49 (blade 2, node 20), m
        146    6.976E+01                                 F               0         Y-component position of node 49 (blade 2, node 20), m
        147    1.037E+02                                 F               0         Z-component position of node 49 (blade 2, node 20), m
        148    1.243E+01                                 F               0         X-component position of node 50 (blade 2, node 21), m
        149    7.306E+01                                 F               0         Y-component position of node 50 (blade 2, node 21), m
        150    1.017E+02                                 F               0         Z-component position of node 50 (blade 2, node 21), m
        151    1.188E+01                                 F               0         X-component position of node 51 (blade 2, node 22), m
        152    7.637E+01                                 F               0         Y-component position of node 51 (blade 2, node 22), m
        153    9.980E+01                                 F               0         Z-component position of node 51 (blade 2, node 22), m
        154    1.133E+01                                 F               0         X-component position of node 52 (blade 2, node 23), m
        155    7.967E+01                                 F               0         Y-component position of node 52 (blade 2, node 23), m
        156    9.786E+01                                 F               0         Z-component position of node 52 (blade 2, node 23), m
        157    1.078E+01                                 F               0         X-component position of node 53 (blade 2, node 24), m
        158    8.297E+01                                 F               0         Y-component position of node 53 (blade 2, node 24), m
        159    9.592E+01                                 F               0         Z-component position of node 53 (blade 2, node 24), m
        160    1.023E+01                                 F               0         X-component position of node 54 (blade 2, node 25), m
        161    8.627E+01                                 F               0         Y-component position of node 54 (blade 2, node 25), m
        162    9.399E+01                                 F               0         Z-component position of node 54 (blade 2, node 25), m
        163    9.687E+00                                 F               0         X-component position of node 55 (blade 2, node 26), m
        164    8.958E+01                                 F               0         Y-component position of node 55 (blade 2, node 26), m
        165    9.205E+01                                 F               0         Z-component position of node 55 (blade 2, node 26), m
        166    9.139E+00                                 F               0         X-component position of node 56 (blade 2, node 27), m
        167    9.288E+01                                 F               0         Y-component position of node 56 (blade 2, node 27), m
        168    9.011E+01                                 F               0         Z-component position of node 56 (blade 2, node 27), m
        169    8.674E+00                                 F               0         X-component position of node 57 (blade 2, node 28), m
        170    9.568E+01                                 F               0         Y-component position of node 57 (blade 2, node 28), m
        171    8.847E+01                                 F               0         Z-component position of node 57 (blade 2, node 28), m
        172    2.732E+01                                 F               0         X-component position of node 58 (blade 3, node 1), m
        173   -7.614E+00                                 F               0         Y-component position of node 58 (blade 3, node 1), m
        174    1.545E+02                                 F               0         Z-component position of node 58 (blade 3, node 1), m
        175    2.768E+01                                 F               0         X-component position of node 59 (blade 3, node 2), m
        176   -7.582E+00                                 F               0         Y-component position of node 59 (blade 3, node 2), m
        177    1.558E+02                                 F               0         Z-component position of node 59 (blade 3, node 2), m
        178    3.256E+01                                 F               0         X-component position of node 60 (blade 3, node 3), m
        179   -7.149E+00                                 F               0         Y-component position of node 60 (blade 3, node 3), m
        180    1.732E+02                                 F               0         Z-component position of node 60 (blade 3, node 3), m
        181    3.360E+01                                 F               0         X-component position of node 61 (blade 3, node 4), m
        182   -7.056E+00                                 F               0         Y-component position of node 61 (blade 3, node 4), m
        183    1.770E+02                                 F               0         Z-component position of node 61 (blade 3, node 4), m
        184    3.464E+01                                 F               0         X-component position of node 62 (blade 3, node 5), m
        185   -6.964E+00                                 F               0         Y-component position of node 62 (blade 3, node 5), m
        186    1.807E+02                                 F               0         Z-component position of node 62 (blade 3, node 5), m
        187    3.567E+01                                 F               0         X-component position of node 63 (blade 3, node 6), m
        188   -6.871E+00                                 F               0         Y-component position of node 63 (blade 3, node 6), m
        189    1.844E+02                                 F               0         Z-component position of node 63 (blade 3, node 6), m
        190    3.671E+01                                 F               0         X-component position of node 64 (blade 3, node 7), m
        191   -6.779E+00                                 F               0         Y-component position of node 64 (blade 3, node 7), m
        192    1.881E+02                                 F               0         Z-component position of node 64 (blade 3, node 7), m
        193    3.775E+01                                 F               0         X-component position of node 65 (blade 3, node 8), m
        194   -6.687E+00                                 F               0         Y-component position of node 65 (blade 3, node 8), m
        195    1.919E+02                                 F               0         Z-component position of node 65 (blade 3, node 8), m
        196    3.879E+01                                 F               0         X-component position of node 66 (blade 3, node 9), m
        197   -6.594E+00                                 F               0         Y-component position of node 66 (blade 3, node 9), m
        198    1.956E+02                                 F               0         Z-component position of node 66 (blade 3, node 9), m
        199    3.983E+01                                 F               0         X-component position of node 67 (blade 3, node 10), m
        200   -6.502E+00                                 F               0         Y-component position of node 67 (blade 3, node 10), m
        201    1.993E+02                                 F               0         Z-component position of node 67 (blade 3, node 10), m
        202    4.087E+01                                 F               0         X-component position of node 68 (blade 3, node 11), m
        203   -6.409E+00                                 F               0         Y-component position of node 68 (blade 3, node 11), m
        204    2.030E+02                                 F               0         Z-component position of node 68 (blade 3, node 11), m
        205    4.191E+01                                 F               0         X-component position of node 69 (blade 3, node 12), m
        206   -6.317E+00                                 F               0         Y-component position of node 69 (blade 3, node 12), m
        207    2.068E+02                                 F               0         Z-component position of node 69 (blade 3, node 12), m
        208    4.294E+01                                 F               0         X-component position of node 70 (blade 3, node 13), m
        209   -6.224E+00                                 F               0         Y-component position of node 70 (blade 3, node 13), m
        210    2.105E+02                                 F               0         Z-component position of node 70 (blade 3, node 13), m
        211    4.398E+01                                 F               0         X-component position of node 71 (blade 3, node 14), m