
Linearized model: Predictions were generated on 31-Jan-2024 at 12:35:17 using OpenFAST, compiled as a 64-bit application using single precision at commit v3.5.1
 linked with  NWTC Subroutine Library; ElastoDyn; InflowWind; AeroDyn; ServoDyn; HydroDyn; MAP++ (<1.20.10>, <Oct-20-2023>)

Description from the FAST input file: CCT-9 Campign 4 model. Input files to be run with OpenFAST 3.5.0. GitHub branch from Lu Wang (https://github.com/luwang00/openfast/tree/dev) compiled on March 7, 2023.

Simulation information:
   Simulation time:                   500.0000 s
   Rotor Speed:                         0.8935 rad/s
   Azimuth:                             0.7463 rad
   Wind Speed:                         10.0000 m/s
   Number of continuous states:         0
   Number of discrete states:           0
   Number of constraint states:         0
   Number of inputs:                  303
   Number of outputs:                   1
   Jacobians included in this file?    No

Order of inputs:
     Column   Operating Point                     Rotating Frame? Derivative Order Description
   ---------- ---------------                     --------------- ---------------- -----------
          1   -1.080E+01                                 F               0         X-component position of node 1 (hub), m
          2    0.000E+00                                 F               0         Y-component position of node 1 (hub), m
          3    1.497E+02                                 F               0         Z-component position of node 1 (hub), m
          4    1.143E+00                                 F               0         X-component position of node 2 (blade 1, node 1), m
          5   -1.103E+01                                 F               0         Y-component position of node 2 (blade 1, node 1), m
          6    1.536E+02                                 F               0         Z-component position of node 2 (blade 1, node 1), m
          7    1.274E+00                                 F               0         X-component position of node 3 (blade 1, node 2), m
          8   -1.198E+01                                 F               0         Y-component position of node 3 (blade 1, node 2), m
          9    1.546E+02                                 F               0         Z-component position of node 3 (blade 1, node 2), m
         10    3.055E+00                                 F               0         X-component position of node 4 (blade 1, node 3), m
         11   -2.485E+01                                 F               0         Y-component position of node 4 (blade 1, node 3), m
         12    1.672E+02                                 F               0         Z-component position of node 4 (blade 1, node 3), m
         13    3.434E+00                                 F               0         X-component position of node 5 (blade 1, node 4), m
         14   -2.759E+01                                 F               0         Y-component position of node 5 (blade 1, node 4), m
         15    1.699E+02                                 F               0         Z-component position of node 5 (blade 1, node 4), m
         16    3.814E+00                                 F               0         X-component position of node 6 (blade 1, node 5), m
         17   -3.033E+01                                 F               0         Y-component position of node 6 (blade 1, node 5), m
         18    1.726E+02                                 F               0         Z-component position of node 6 (blade 1, node 5), m
         19    4.193E+00                                 F               0         X-component position of node 7 (blade 1, node 6), m
         20   -3.308E+01                                 F               0         Y-component position of node 7 (blade 1, node 6), m
         21    1.753E+02                                 F               0         Z-component position of node 7 (blade 1, node 6), m
         22    4.572E+00                                 F               0         X-component position of node 8 (blade 1, node 7), m
         23   -3.582E+01                                 F               0         Y-component position of node 8 (blade 1, node 7), m
         24    1.780E+02                                 F               0         Z-component position of node 8 (blade 1, node 7), m
         25    4.952E+00                                 F               0         X-component position of node 9 (blade 1, node 8), m
         26   -3.856E+01                                 F               0         Y-component position of node 9 (blade 1, node 8), m
         27    1.807E+02                                 F               0         Z-component position of node 9 (blade 1, node 8), m
         28    5.331E+00                                 F               0         X-component position of node 10 (blade 1, node 9), m
         29   -4.131E+01                                 F               0         Y-component position of node 10 (blade 1, node 9), m
         30    1.834E+02                                 F               0         Z-component position of node 10 (blade 1, node 9), m
         31    5.711E+00                                 F               0         X-component position of node 11 (blade 1, node 10), m
         32   -4.405E+01                                 F               0         Y-component position of node 11 (blade 1, node 10), m
         33    1.861E+02                                 F               0         Z-component position of node 11 (blade 1, node 10), m
         34    6.090E+00                                 F               0         X-component position of node 12 (blade 1, node 11), m
         35   -4.679E+01                                 F               0         Y-component position of node 12 (blade 1, node 11), m
         36    1.888E+02                                 F               0         Z-component position of node 12 (blade 1, node 11), m
         37    6.470E+00                                 F               0         X-component position of node 13 (blade 1, node 12), m
         38   -4.953E+01                                 F               0         Y-component position of node 13 (blade 1, node 12), m
         39    1.915E+02                                 F               0         Z-component position of node 13 (blade 1, node 12), m
         40    6.849E+00                                 F               0         X-component position of node 14 (blade 1, node 13), m
         41   -5.228E+01                                 F               0         Y-component position of node 14 (blade 1, node 13), m
         42    1.942E+02                                 F               0         Z-component position of node 14 (blade 1, node 13), m
         43    7.229E+00                                 F               0         X-component position of node 15 (blade 1, node 14), m
         44   -5.502E+01                                 F               0         Y-component position of node 15 (blade 1, node 14), m
         45    1.969E+02                                 F               0         Z-component position of node 15 (blade 1, node 14), m
         46    7.608E+00                                 F               0         X-component position of node 16 (blade 1, node 15), m
         47   -5.776E+01                                 F               0         Y-component position of node 16 (blade 1, node 15), m
         48    1.996E+02                                 F               0         Z-component position of node 16 (blade 1, node 15), m
         49    7.988E+00                                 F               0         X-component position of node 17 (blade 1, node 16), m
         50   -6.051E+01                                 F               0         Y-component position of node 17 (blade 1, node 16), m
         51    2.023E+02                                 F               0         Z-component position of node 17 (blade 1, node 16), m
         52    8.367E+00                                 F               0         X-component position of node 18 (blade 1, node 17), m
         53   -6.325E+01                                 F               0         Y-component position of node 18 (blade 1, node 17), m
         54    2.050E+02                                 F               0         Z-component position of node 18 (blade 1, node 17), m
         55    8.746E+00                                 F               0         X-component position of node 19 (blade 1, node 18), m
         56   -6.599E+01                                 F               0         Y-component position of node 19 (blade 1, node 18), m
         57    2.077E+02                                 F               0         Z-component position of node 19 (blade 1, node 18), m
         58    9.126E+00                                 F               0         X-component position of node 20 (blade 1, node 19), m
         59   -6.873E+01                                 F               0         Y-component position of node 20 (blade 1, node 19), m
         60    2.104E+02                                 F               0         Z-component position of node 20 (blade 1, node 19), m
         61    9.505E+00                                 F               0         X-component position of node 21 (blade 1, node 20), m
         62   -7.148E+01                                 F               0         Y-component position of node 21 (blade 1, node 20), m
         63    2.131E+02                                 F               0         Z-component position of node 21 (blade 1, node 20), m
         64    9.885E+00                                 F               0         X-component position of node 22 (blade 1, node 21), m
         65   -7.422E+01                                 F               0         Y-component position of node 22 (blade 1, node 21), m
         66    2.158E+02                                 F               0         Z-component position of node 22 (blade 1, node 21), m
         67    1.026E+01                                 F               0         X-component position of node 23 (blade 1, node 22), m
         68   -7.696E+01                                 F               0         Y-component position of node 23 (blade 1, node 22), m
         69    2.185E+02                                 F               0         Z-component position of node 23 (blade 1, node 22), m
         70    1.064E+01                                 F               0         X-component position of node 24 (blade 1, node 23), m
         71   -7.971E+01                                 F               0         Y-component position of node 24 (blade 1, node 23), m
         72    2.212E+02                                 F               0         Z-component position of node 24 (blade 1, node 23), m
         73    1.102E+01                                 F               0         X-component position of node 25 (blade 1, node 24), m
         74   -8.245E+01                                 F               0         Y-component position of node 25 (blade 1, node 24), m
         75    2.239E+02                                 F               0         Z-component position of node 25 (blade 1, node 24), m
         76    1.140E+01                                 F               0         X-component position of node 26 (blade 1, node 25), m
         77   -8.519E+01                                 F               0         Y-component position of node 26 (blade 1, node 25), m
         78    2.266E+02                                 F               0         Z-component position of node 26 (blade 1, node 25), m
         79    1.178E+01                                 F               0         X-component position of node 27 (blade 1, node 26), m
         80   -8.794E+01                                 F               0         Y-component position of node 27 (blade 1, node 26), m
         81    2.293E+02                                 F               0         Z-component position of node 27 (blade 1, node 26), m
         82    1.216E+01                                 F               0         X-component position of node 28 (blade 1, node 27), m
         83   -9.068E+01                                 F               0         Y-component position of node 28 (blade 1, node 27), m
         84    2.320E+02                                 F               0         Z-component position of node 28 (blade 1, node 27), m
         85    1.248E+01                                 F               0         X-component position of node 29 (blade 1, node 28), m
         86   -9.300E+01                                 F               0         Y-component position of node 29 (blade 1, node 28), m
         87    2.343E+02                                 F               0         Z-component position of node 29 (blade 1, node 28), m
         88   -6.421E-02                                 F               0         X-component position of node 30 (blade 2, node 1), m
         89   -8.517E+00                                 F               0         Y-component position of node 30 (blade 2, node 1), m
         90    1.444E+02                                 F               0         Z-component position of node 30 (blade 2, node 1), m
         91   -2.241E-01                                 F               0         X-component position of node 31 (blade 2, node 2), m
         92   -8.859E+00                                 F               0         Y-component position of node 31 (blade 2, node 2), m
         93    1.432E+02                                 F               0         Z-component position of node 31 (blade 2, node 2), m
         94   -2.398E+00                                 F               0         X-component position of node 32 (blade 2, node 3), m
         95   -1.350E+01                                 F               0         Y-component position of node 32 (blade 2, node 3), m
         96    1.258E+02                                 F               0         Z-component position of node 32 (blade 2, node 3), m
         97   -2.861E+00                                 F               0         X-component position of node 33 (blade 2, node 4), m
         98   -1.449E+01                                 F               0         Y-component position of node 33 (blade 2, node 4), m
         99    1.220E+02                                 F               0         Z-component position of node 33 (blade 2, node 4), m
        100   -3.324E+00                                 F               0         X-component position of node 34 (blade 2, node 5), m
        101   -1.548E+01                                 F               0         Y-component position of node 34 (blade 2, node 5), m
        102    1.183E+02                                 F               0         Z-component position of node 34 (blade 2, node 5), m
        103   -3.787E+00                                 F               0         X-component position of node 35 (blade 2, node 6), m
        104   -1.647E+01                                 F               0         Y-component position of node 35 (blade 2, node 6), m
        105    1.146E+02                                 F               0         Z-component position of node 35 (blade 2, node 6), m
        106   -4.250E+00                                 F               0         X-component position of node 36 (blade 2, node 7), m
        107   -1.746E+01                                 F               0         Y-component position of node 36 (blade 2, node 7), m
        108    1.109E+02                                 F               0         Z-component position of node 36 (blade 2, node 7), m
        109   -4.714E+00                                 F               0         X-component position of node 37 (blade 2, node 8), m
        110   -1.845E+01                                 F               0         Y-component position of node 37 (blade 2, node 8), m
        111    1.072E+02                                 F               0         Z-component position of node 37 (blade 2, node 8), m
        112   -5.177E+00                                 F               0         X-component position of node 38 (blade 2, node 9), m
        113   -1.944E+01                                 F               0         Y-component position of node 38 (blade 2, node 9), m
        114    1.035E+02                                 F               0         Z-component position of node 38 (blade 2, node 9), m
        115   -5.640E+00                                 F               0         X-component position of node 39 (blade 2, node 10), m
        116   -2.043E+01                                 F               0         Y-component position of node 39 (blade 2, node 10), m
        117    9.978E+01                                 F               0         Z-component position of node 39 (blade 2, node 10), m
        118   -6.103E+00                                 F               0         X-component position of node 40 (blade 2, node 11), m
        119   -2.142E+01                                 F               0         Y-component position of node 40 (blade 2, node 11), m
        120    9.607E+01                                 F               0         Z-component position of node 40 (blade 2, node 11), m
        121   -6.566E+00                                 F               0         X-component position of node 41 (blade 2, node 12), m
        122   -2.241E+01                                 F               0         Y-component position of node 41 (blade 2, node 12), m
        123    9.236E+01                                 F               0         Z-component position of node 41 (blade 2, node 12), m
        124   -7.029E+00                                 F               0         X-component position of node 42 (blade 2, node 13), m
        125   -2.340E+01                                 F               0         Y-component position of node 42 (blade 2, node 13), m
        126    8.865E+01                                 F               0         Z-component position of node 42 (blade 2, node 13), m
        127   -7.492E+00                                 F               0         X-component position of node 43 (blade 2, node 14), m
        128   -2.439E+01                                 F               0         Y-component position of node 43 (blade 2, node 14), m
        129    8.494E+01                                 F               0         Z-component position of node 43 (blade 2, node 14), m
        130   -7.955E+00                                 F               0         X-component position of node 44 (blade 2, node 15), m
        131   -2.538E+01                                 F               0         Y-component position of node 44 (blade 2, node 15), m
        132    8.123E+01                                 F               0         Z-component position of node 44 (blade 2, node 15), m
        133   -8.419E+00                                 F               0         X-component position of node 45 (blade 2, node 16), m
        134   -2.637E+01                                 F               0         Y-component position of node 45 (blade 2, node 16), m
        135    7.752E+01                                 F               0         Z-component position of node 45 (blade 2, node 16), m
        136   -8.882E+00                                 F               0         X-component position of node 46 (blade 2, node 17), m
        137   -2.736E+01                                 F               0         Y-component position of node 46 (blade 2, node 17), m
        138    7.381E+01                                 F               0         Z-component position of node 46 (blade 2, node 17), m
        139   -9.345E+00                                 F               0         X-component position of node 47 (blade 2, node 18), m
        140   -2.835E+01                                 F               0         Y-component position of node 47 (blade 2, node 18), m
        141    7.010E+01                                 F               0         Z-component position of node 47 (blade 2, node 18), m
        142   -9.808E+00                                 F               0         X-component position of node 48 (blade 2, node 19), m
        143   -2.934E+01                                 F               0         Y-component position of node 48 (blade 2, node 19), m
        144    6.639E+01                                 F               0         Z-component position of node 48 (blade 2, node 19), m
        145   -1.027E+01                                 F               0         X-component position of node 49 (blade 2, node 20), m
        146   -3.033E+01                                 F               0         Y-component position of node 49 (blade 2, node 20), m
        147    6.268E+01                                 F               0         Z-component position of node 49 (blade 2, node 20), m
        148   -1.073E+01                                 F               0         X-component position of node 50 (blade 2, node 21), m
        149   -3.132E+01                                 F               0         Y-component position of node 50 (blade 2, node 21), m
        150    5.897E+01                                 F               0         Z-component position of node 50 (blade 2, node 21), m
        151   -1.120E+01                                 F               0         X-component position of node 51 (blade 2, node 22), m
        152   -3.231E+01                                 F               0         Y-component position of node 51 (blade 2, node 22), m
        153    5.526E+01                                 F               0         Z-component position of node 51 (blade 2, node 22), m
        154   -1.166E+01                                 F               0         X-component position of node 52 (blade 2, node 23), m
        155   -3.330E+01                                 F               0         Y-component position of node 52 (blade 2, node 23), m
        156    5.155E+01                                 F               0         Z-component position of node 52 (blade 2, node 23), m
        157   -1.212E+01                                 F               0         X-component position of node 53 (blade 2, node 24), m
        158   -3.429E+01                                 F               0         Y-component position of node 53 (blade 2, node 24), m
        159    4.784E+01                                 F               0         Z-component position of node 53 (blade 2, node 24), m
        160   -1.259E+01                                 F               0         X-component position of node 54 (blade 2, node 25), m
        161   -3.528E+01                                 F               0         Y-component position of node 54 (blade 2, node 25), m
        162    4.413E+01                                 F               0         Z-component position of node 54 (blade 2, node 25), m
        163   -1.305E+01                                 F               0         X-component position of node 55 (blade 2, node 26), m
        164   -3.627E+01                                 F               0         Y-component position of node 55 (blade 2, node 26), m
        165    4.042E+01                                 F               0         Z-component position of node 55 (blade 2, node 26), m
        166   -1.351E+01                                 F               0         X-component position of node 56 (blade 2, node 27), m
        167   -3.726E+01                                 F               0         Y-component position of node 56 (blade 2, node 27), m
        168    3.671E+01                                 F               0         Z-component position of node 56 (blade 2, node 27), m
        169   -1.391E+01                                 F               0         X-component position of node 57 (blade 2, node 28), m
        170   -3.810E+01                                 F               0         Y-component position of node 57 (blade 2, node 28), m
        171    3.357E+01                                 F               0         Z-component position of node 57 (blade 2, node 28), m
        172    7.190E-01                                 F               0         X-component position of node 58 (blade 3, node 1), m
        173   -1.753E+00                                 F               0         Y-component position of node 58 (blade 3, node 1), m
        174    1.512E+02                                 F               0         Z-component position of node 58 (blade 3, node 1), m
        175    7.479E-01                                 F               0         X-component position of node 59 (blade 3, node 2), m
        176   -4.649E-01                                 F               0         Y-component position of node 59 (blade 3, node 2), m
        177    1.516E+02                                 F               0         Z-component position of node 59 (blade 3, node 2), m
        178    1.141E+00                                 F               0         X-component position of node 60 (blade 3, node 3), m
        179    1.705E+01                                 F               0         Y-component position of node 60 (blade 3, node 3), m
        180    1.563E+02                                 F               0         Z-component position of node 60 (blade 3, node 3), m
        181    1.224E+00                                 F               0         X-component position of node 61 (blade 3, node 4), m
        182    2.079E+01                                 F               0         Y-component position of node 61 (blade 3, node 4), m
        183    1.573E+02                                 F               0         Z-component position of node 61 (blade 3, node 4), m
        184    1.308E+00                                 F               0         X-component position of node 62 (blade 3, node 5), m
        185    2.452E+01                                 F               0         Y-component position of node 62 (blade 3, node 5), m
        186    1.583E+02                                 F               0         Z-component position of node 62 (blade 3, node 5), m
        187    1.392E+00                                 F               0         X-component position of node 63 (blade 3, node 6), m
        188    2.825E+01                                 F               0         Y-component position of node 63 (blade 3, node 6), m
        189    1.593E+02                                 F               0         Z-component position of node 63 (blade 3, node 6), m
        190    1.475E+00                                 F               0         X-component position of node 64 (blade 3, node 7), m
        191    3.198E+01                                 F               0         Y-component position of node 64 (blade 3, node 7), m
        192    1.603E+02                                 F               0         Z-component position of node 64 (blade 3, node 7), m
        193    1.559E+00                                 F               0         X-component position of node 65 (blade 3, node 8), m
        194    3.572E+01                                 F               0         Y-component position of node 65 (blade 3, node 8), m
        195    1.613E+02                                 F               0         Z-component position of node 65 (blade 3, node 8), m
        196    1.643E+00                                 F               0         X-component position of node 66 (blade 3, node 9), m
        197    3.945E+01                                 F               0         Y-component position of node 66 (blade 3, node 9), m
        198    1.624E+02                                 F               0         Z-component position of node 66 (blade 3, node 9), m
        199    1.726E+00                                 F               0         X-component position of node 67 (blade 3, node 10), m
        200    4.318E+01                                 F               0         Y-component position of node 67 (blade 3, node 10), m
        201    1.634E+02                                 F               0         Z-component position of node 67 (blade 3, node 10), m
        202    1.810E+00                                 F               0         X-component position of node 68 (blade 3, node 11), m
        203    4.691E+01                                 F               0         Y-component position of node 68 (blade 3, node 11), m
        204    1.644E+02                                 F               0         Z-component position of node 68 (blade 3, node 11), m
        205    1.894E+00                                 F               0         X-component position of node 69 (blade 3, node 12), m
        206    5.065E+01                                 F               0         Y-component position of node 69 (blade 3, node 12), m
        207    1.654E+02                                 F               0         Z-component position of node 69 (blade 3, node 12), m
        208    1.978E+00                                 F               0         X-component position of node 70 (blade 3, node 13), m
        209    5.438E+01                                 F               0         Y-component position of node 70 (blade 3, node 13), m
        210    1.664E+02                                 F               0         Z-component position of node 70 (blade 3, node 13), m
        211    2.061E+00                                 F               0         X-component position of node 71 (blade 3, node 14), m