
Linearized model: Predictions were generated on 31-Jan-2024 at 12:35:17 using OpenFAST, compiled as a 64-bit application using single precision at commit v3.5.1
 linked with  NWTC Subroutine Library; ElastoDyn; InflowWind; AeroDyn; ServoDyn; HydroDyn; MAP++ (<1.20.10>, <Oct-20-2023>)

Description from the FAST input file: CCT-9 Campign 4 model. Input files to be run with OpenFAST 3.5.0. GitHub branch from Lu Wang (https://github.com/luwang00/openfast/tree/dev) compiled on March 7, 2023.

Simulation information:
   Simulation time:                   507.4250 s
   Rotor Speed:                         0.8936 rad/s
   Azimuth:                             1.0990 rad
   Wind Speed:                         10.0000 m/s
   Number of continuous states:         0
   Number of discrete states:           0
   Number of constraint states:         0
   Number of inputs:                 1746
   Number of outputs:                   4
   Jacobians included in this file?    No

Order of inputs:
     Column   Operating Point                     Rotating Frame? Derivative Order Description
   ---------- ---------------                     --------------- ---------------- -----------
          1    8.506E+00                                 F               0         Tower X translation displacement, node 1, m
          2   -1.355E+00                                 F               0         Tower Y translation displacement, node 1, m
          3   -1.112E-01                                 F               0         Tower Z translation displacement, node 1, m
          4    8.743E+00                                 F               0         Tower X translation displacement, node 2, m
          5   -1.887E+00                                 F               0         Tower Y translation displacement, node 2, m
          6   -1.249E-01                                 F               0         Tower Z translation displacement, node 2, m
          7    8.993E+00                                 F               0         Tower X translation displacement, node 3, m
          8   -2.420E+00                                 F               0         Tower Y translation displacement, node 3, m
          9   -1.389E-01                                 F               0         Tower Z translation displacement, node 3, m
         10    9.253E+00                                 F               0         Tower X translation displacement, node 4, m
         11   -2.952E+00                                 F               0         Tower Y translation displacement, node 4, m
         12   -1.531E-01                                 F               0         Tower Z translation displacement, node 4, m
         13    9.520E+00                                 F               0         Tower X translation displacement, node 5, m
         14   -3.485E+00                                 F               0         Tower Y translation displacement, node 5, m
         15   -1.675E-01                                 F               0         Tower Z translation displacement, node 5, m
         16    9.794E+00                                 F               0         Tower X translation displacement, node 6, m
         17   -4.017E+00                                 F               0         Tower Y translation displacement, node 6, m
         18   -1.820E-01                                 F               0         Tower Z translation displacement, node 6, m
         19    1.007E+01                                 F               0         Tower X translation displacement, node 7, m
         20   -4.549E+00                                 F               0         Tower Y translation displacement, node 7, m
         21   -1.966E-01                                 F               0         Tower Z translation displacement, node 7, m
         22    1.035E+01                                 F               0         Tower X translation displacement, node 8, m
         23   -5.082E+00                                 F               0         Tower Y translation displacement, node 8, m
         24   -2.113E-01                                 F               0         Tower Z translation displacement, node 8, m
         25    1.064E+01                                 F               0         Tower X translation displacement, node 9, m
         26   -5.614E+00                                 F               0         Tower Y translation displacement, node 9, m
         27   -2.260E-01                                 F               0         Tower Z translation displacement, node 9, m
         28    1.092E+01                                 F               0         Tower X translation displacement, node 10, m
         29   -6.146E+00                                 F               0         Tower Y translation displacement, node 10, m
         30   -2.408E-01                                 F               0         Tower Z translation displacement, node 10, m
         31    1.121E+01                                 F               0         Tower X translation displacement, node 11, m
         32   -6.679E+00                                 F               0         Tower Y translation displacement, node 11, m
         33   -2.555E-01                                 F               0         Tower Z translation displacement, node 11, m
         34    9.998E-01,  7.493E-03, -1.841E-02         F               0         Tower X orientation angle, node 1, rad
         35   -6.691E-03,  9.990E-01,  4.325E-02         F               0         Tower Y orientation angle, node 1, rad
         36    1.872E-02, -4.312E-02,  9.989E-01         F               0         Tower Z orientation angle, node 1, rad
         37    9.998E-01,  7.537E-03, -1.943E-02         F               0         Tower X orientation angle, node 2, rad
         38   -6.691E-03,  9.990E-01,  4.325E-02         F               0         Tower Y orientation angle, node 2, rad
         39    1.974E-02, -4.311E-02,  9.989E-01         F               0         Tower Z orientation angle, node 2, rad
         40    9.998E-01,  7.575E-03, -2.031E-02         F               0         Tower X orientation angle, node 3, rad
         41   -6.691E-03,  9.990E-01,  4.325E-02         F               0         Tower Y orientation angle, node 3, rad
         42    2.062E-02, -4.310E-02,  9.989E-01         F               0         Tower Z orientation angle, node 3, rad
         43    9.998E-01,  7.606E-03, -2.103E-02         F               0         Tower X orientation angle, node 4, rad
         44   -6.691E-03,  9.990E-01,  4.325E-02         F               0         Tower Y orientation angle, node 4, rad
         45    2.133E-02, -4.310E-02,  9.988E-01         F               0         Tower Z orientation angle, node 4, rad
         46    9.997E-01,  7.631E-03, -2.160E-02         F               0         Tower X orientation angle, node 5, rad
         47   -6.691E-03,  9.990E-01,  4.325E-02         F               0         Tower Y orientation angle, node 5, rad
         48    2.190E-02, -4.309E-02,  9.988E-01         F               0         Tower Z orientation angle, node 5, rad
         49    9.997E-01,  7.650E-03, -2.203E-02         F               0         Tower X orientation angle, node 6, rad
         50   -6.691E-03,  9.990E-01,  4.325E-02         F               0         Tower Y orientation angle, node 6, rad
         51    2.234E-02, -4.309E-02,  9.988E-01         F               0         Tower Z orientation angle, node 6, rad
         52    9.997E-01,  7.663E-03, -2.233E-02         F               0         Tower X orientation angle, node 7, rad
         53   -6.691E-03,  9.990E-01,  4.325E-02         F               0         Tower Y orientation angle, node 7, rad
         54    2.264E-02, -4.309E-02,  9.988E-01         F               0         Tower Z orientation angle, node 7, rad
         55    9.997E-01,  7.672E-03, -2.254E-02         F               0         Tower X orientation angle, node 8, rad
         56   -6.691E-03,  9.990E-01,  4.325E-02         F               0         Tower Y orientation angle, node 8, rad
         57    2.285E-02, -4.308E-02,  9.988E-01         F               0         Tower Z orientation angle, node 8, rad
         58    9.997E-01,  7.677E-03, -2.267E-02         F               0         Tower X orientation angle, node 9, rad
         59   -6.691E-03,  9.990E-01,  4.325E-02         F               0         Tower Y orientation angle, node 9, rad
         60    2.298E-02, -4.308E-02,  9.988E-01         F               0         Tower Z orientation angle, node 9, rad
         61    9.997E-01,  7.680E-03, -2.274E-02         F               0         Tower X orientation angle, node 10, rad
         62   -6.691E-03,  9.990E-01,  4.325E-02         F               0         Tower Y orientation angle, node 10, rad
         63    2.305E-02, -4.308E-02,  9.988E-01         F               0         Tower Z orientation angle, node 10, rad
         64    9.997E-01,  7.682E-03, -2.277E-02         F               0         Tower X orientation angle, node 11, rad
         65   -6.691E-03,  9.990E-01,  4.325E-02         F               0         Tower Y orientation angle, node 11, rad
         66    2.308E-02, -4.308E-02,  9.988E-01         F               0         Tower Z orientation angle, node 11, rad
         67   -2.665E-03                                 F               0         Tower X translation velocity, node 1, m/s
         68   -8.356E-07                                 F               0         Tower Y translation velocity, node 1, m/s
         69   -6.526E-03                                 F               0         Tower Z translation velocity, node 1, m/s
         70   -2.667E-03                                 F               0         Tower X translation velocity, node 2, m/s
         71   -1.414E-06                                 F               0         Tower Y translation velocity, node 2, m/s
         72   -6.526E-03                                 F               0         Tower Z translation velocity, node 2, m/s
         73   -2.669E-03                                 F               0         Tower X translation velocity, node 3, m/s
         74   -2.026E-06                                 F               0         Tower Y translation velocity, node 3, m/s
         75   -6.526E-03                                 F               0         Tower Z translation velocity, node 3, m/s
         76   -2.669E-03                                 F               0         Tower X translation velocity, node 4, m/s
         77   -2.654E-06                                 F               0         Tower Y translation velocity, node 4, m/s
         78   -6.526E-03                                 F               0         Tower Z translation velocity, node 4, m/s
         79   -2.668E-03                                 F               0         Tower X translation velocity, node 5, m/s
         80   -3.286E-06                                 F               0         Tower Y translation velocity, node 5, m/s
         81   -6.526E-03                                 F               0         Tower Z translation velocity, node 5, m/s
         82   -2.664E-03                                 F               0         Tower X translation velocity, node 6, m/s
         83   -3.911E-06                                 F               0         Tower Y translation velocity, node 6, m/s
         84   -6.526E-03                                 F               0         Tower Z translation velocity, node 6, m/s
         85   -2.657E-03                                 F               0         Tower X translation velocity, node 7, m/s
         86   -4.523E-06                                 F               0         Tower Y translation velocity, node 7, m/s
         87   -6.527E-03                                 F               0         Tower Z translation velocity, node 7, m/s
         88   -2.647E-03                                 F               0         Tower X translation velocity, node 8, m/s
         89   -5.117E-06                                 F               0         Tower Y translation velocity, node 8, m/s
         90   -6.527E-03                                 F               0         Tower Z translation velocity, node 8, m/s
         91   -2.633E-03                                 F               0         Tower X translation velocity, node 9, m/s
         92   -5.691E-06                                 F               0         Tower Y translation velocity, node 9, m/s
         93   -6.527E-03                                 F               0         Tower Z translation velocity, node 9, m/s
         94   -2.616E-03                                 F               0         Tower X translation velocity, node 10, m/s
         95   -6.248E-06                                 F               0         Tower Y translation velocity, node 10, m/s
         96   -6.528E-03                                 F               0         Tower Z translation velocity, node 10, m/s
         97   -2.598E-03                                 F               0         Tower X translation velocity, node 11, m/s
         98   -6.790E-06                                 F               0         Tower Y translation velocity, node 11, m/s
         99   -6.528E-03                                 F               0         Tower Z translation velocity, node 11, m/s
        100    1.139E+01                                 F               0         Hub X translation displacement, node 1, m
        101   -7.100E+00                                 F               0         Hub Y translation displacement, node 1, m
        102   -1.898E-02                                 F               0         Hub Z translation displacement, node 1, m
        103    9.918E-01,  1.214E-02, -1.270E-01         F               0         Hub X orientation angle, node 1, rad
        104    1.105E-01,  4.166E-01,  9.024E-01         F               0         Hub Y orientation angle, node 1, rad
        105    6.388E-02, -9.090E-01,  4.118E-01         F               0         Hub Z orientation angle, node 1, rad
        106    8.863E-01                                 F               0         Hub X rotation velocity, node 1, rad/s
        107    1.085E-02                                 F               0         Hub Y rotation velocity, node 1, rad/s
        108   -1.135E-01                                 F               0         Hub Z rotation velocity, node 1, rad/s
        109    9.881E-01, -2.212E-04, -1.538E-01         F               0         Blade root 1 X orientation angle, node 1, rad
        110    1.399E-01,  4.168E-01,  8.982E-01         F               0         Blade root 1 Y orientation angle, node 1, rad
        111    6.388E-02, -9.090E-01,  4.118E-01         F               0         Blade root 1 Z orientation angle, node 1, rad
        112    9.914E-01,  4.167E-02, -1.242E-01         F               0         Blade root 2 X orientation angle, node 1, rad
        113    2.950E-02, -9.947E-01, -9.824E-02         F               0         Blade root 2 Y orientation angle, node 1, rad
        114   -1.276E-01,  9.373E-02, -9.874E-01         F               0         Blade root 2 Z orientation angle, node 1, rad
        115    9.947E-01, -5.037E-03, -1.030E-01         F               0         Blade root 3 X orientation angle, node 1, rad
        116   -8.110E-02,  5.790E-01, -8.113E-01         F               0         Blade root 3 Y orientation angle, node 1, rad
        117    6.374E-02,  8.153E-01,  5.755E-01         F               0         Blade root 3 Z orientation angle, node 1, rad
        118    1.117E+01                                 F               0         Blade 1 X translation displacement, node 1, m
        119   -1.214E+01                                 F               0         Blade 1 Y translation displacement, node 1, m
        120   -3.247E+00                                 F               0         Blade 1 Z translation displacement, node 1, m
        121    1.111E+01                                 F               0         Blade 1 X translation displacement, node 2, m
        122   -1.335E+01                                 F               0         Blade 1 Y translation displacement, node 2, m
        123   -4.025E+00                                 F               0         Blade 1 Z translation displacement, node 2, m
        124    1.037E+01                                 F               0         Blade 1 X translation displacement, node 3, m
        125   -2.985E+01                                 F               0         Blade 1 Y translation displacement, node 3, m
        126   -1.460E+01                                 F               0         Blade 1 Z translation displacement, node 3, m
        127    1.022E+01                                 F               0         Blade 1 X translation displacement, node 4, m
        128   -3.337E+01                                 F               0         Blade 1 Y translation displacement, node 4, m
        129   -1.686E+01                                 F               0         Blade 1 Z translation displacement, node 4, m
        130    1.006E+01                                 F               0         Blade 1 X translation displacement, node 5, m
        131   -3.688E+01                                 F               0         Blade 1 Y translation displacement, node 5, m
        132   -1.911E+01                                 F               0         Blade 1 Z translation displacement, node 5, m
        133    9.902E+00                                 F               0         Blade 1 X translation displacement, node 6, m
        134   -4.040E+01                                 F               0         Blade 1 Y translation displacement, node 6, m
        135   -2.136E+01                                 F               0         Blade 1 Z translation displacement, node 6, m
        136    9.744E+00                                 F               0         Blade 1 X translation displacement, node 7, m
        137   -4.391E+01                                 F               0         Blade 1 Y translation displacement, node 7, m
        138   -2.362E+01                                 F               0         Blade 1 Z translation displacement, node 7, m
        139    9.587E+00                                 F               0         Blade 1 X translation displacement, node 8, m
        140   -4.743E+01                                 F               0         Blade 1 Y translation displacement, node 8, m
        141   -2.587E+01                                 F               0         Blade 1 Z translation displacement, node 8, m
        142    9.430E+00                                 F               0         Blade 1 X translation displacement, node 9, m
        143   -5.094E+01                                 F               0         Blade 1 Y translation displacement, node 9, m
        144   -2.812E+01                                 F               0         Blade 1 Z translation displacement, node 9, m
        145    9.273E+00                                 F               0         Blade 1 X translation displacement, node 10, m
        146   -5.446E+01                                 F               0         Blade 1 Y translation displacement, node 10, m
        147   -3.038E+01                                 F               0         Blade 1 Z translation displacement, node 10, m
        148    9.116E+00                                 F               0         Blade 1 X translation displacement, node 11, m
        149   -5.798E+01                                 F               0         Blade 1 Y translation displacement, node 11, m
        150   -3.263E+01                                 F               0         Blade 1 Z translation displacement, node 11, m
        151    8.958E+00                                 F               0         Blade 1 X translation displacement, node 12, m
        152   -6.149E+01                                 F               0         Blade 1 Y translation displacement, node 12, m
        153   -3.488E+01                                 F               0         Blade 1 Z translation displacement, node 12, m
        154    8.801E+00                                 F               0         Blade 1 X translation displacement, node 13, m
        155   -6.501E+01                                 F               0         Blade 1 Y translation displacement, node 13, m
        156   -3.714E+01                                 F               0         Blade 1 Z translation displacement, node 13, m
        157    8.644E+00                                 F               0         Blade 1 X translation displacement, node 14, m
        158   -6.852E+01                                 F               0         Blade 1 Y translation displacement, node 14, m
        159   -3.939E+01                                 F               0         Blade 1 Z translation displacement, node 14, m
        160    8.487E+00                                 F               0         Blade 1 X translation displacement, node 15, m
        161   -7.204E+01                                 F               0         Blade 1 Y translation displacement, node 15, m
        162   -4.165E+01                                 F               0         Blade 1 Z translation displacement, node 15, m
        163    8.330E+00                                 F               0         Blade 1 X translation displacement, node 16, m
        164   -7.556E+01                                 F               0         Blade 1 Y translation displacement, node 16, m
        165   -4.390E+01                                 F               0         Blade 1 Z translation displacement, node 16, m
        166    8.172E+00                                 F               0         Blade 1 X translation displacement, node 17, m
        167   -7.907E+01                                 F               0         Blade 1 Y translation displacement, node 17, m
        168   -4.615E+01                                 F               0         Blade 1 Z translation displacement, node 17, m
        169    8.015E+00                                 F               0         Blade 1 X translation displacement, node 18, m
        170   -8.259E+01                                 F               0         Blade 1 Y translation displacement, node 18, m
        171   -4.841E+01                                 F               0         Blade 1 Z translation displacement, node 18, m
        172    7.858E+00                                 F               0         Blade 1 X translation displacement, node 19, m
        173   -8.610E+01                                 F               0         Blade 1 Y translation displacement, node 19, m
        174   -5.066E+01                                 F               0         Blade 1 Z translation displacement, node 19, m
        175    7.701E+00                                 F               0         Blade 1 X translation displacement, node 20, m
        176   -8.962E+01                                 F               0         Blade 1 Y translation displacement, node 20, m
        177   -5.291E+01                                 F               0         Blade 1 Z translation displacement, node 20, m
        178    7.544E+00                                 F               0         Blade 1 X translation displacement, node 21, m
        179   -9.313E+01                                 F               0         Blade 1 Y translation displacement, node 21, m
        180   -5.517E+01                                 F               0         Blade 1 Z translation displacement, node 21, m
        181    7.386E+00                                 F               0         Blade 1 X translation displacement, node 22, m
        182   -9.665E+01                                 F               0         Blade 1 Y translation displacement, node 22, m
        183   -5.742E+01                                 F               0         Blade 1 Z translation displacement, node 22, m
        184    7.229E+00                                 F               0         Blade 1 X translation displacement, node 23, m
        185   -1.002E+02                                 F               0         Blade 1 Y translation displacement, node 23, m
        186   -5.967E+01                                 F               0         Blade 1 Z translation displacement, node 23, m
        187    7.072E+00                                 F               0         Blade 1 X translation displacement, node 24, m
        188   -1.037E+02                                 F               0         Blade 1 Y translation displacement, node 24, m
        189   -6.193E+01                                 F               0         Blade 1 Z translation displacement, node 24, m
        190    6.915E+00                                 F               0         Blade 1 X translation displacement, node 25, m
        191   -1.072E+02                                 F               0         Blade 1 Y translation displacement, node 25, m
        192   -6.418E+01                                 F               0         Blade 1 Z translation displacement, node 25, m
        193    6.758E+00                                 F               0         Blade 1 X translation displacement, node 26, m
        194   -1.107E+02                                 F               0         Blade 1 Y translation displacement, node 26, m
        195   -6.644E+01                                 F               0         Blade 1 Z translation displacement, node 26, m
        196    6.600E+00                                 F               0         Blade 1 X translation displacement, node 27, m
        197   -1.142E+02                                 F               0         Blade 1 Y translation displacement, node 27, m
        198   -6.869E+01                                 F               0         Blade 1 Z translation displacement, node 27, m
        199    6.467E+00                                 F               0         Blade 1 X translation displacement, node 28, m
        200   -1.172E+02                                 F               0         Blade 1 Y translation displacement, node 28, m
        201   -7.060E+01                                 F               0         Blade 1 Z translation displacement, node 28, m
        202    8.156E-01, -1.902E-01, -5.464E-01         F               0         Blade 1 X orientation angle, node 1, rad
        203    5.751E-01,  3.708E-01,  7.292E-01         F               0         Blade 1 Y orientation angle, node 1, rad
        204    6.388E-02, -9.090E-01,  4.118E-01         F               0         Blade 1 Z orientation angle, node 1, rad
        205    8.156E-01, -1.902E-01, -5.464E-01         F               0         Blade 1 X orientation angle, node 2, rad
        206    5.751E-01,  3.708E-01,  7.292E-01         F               0         Blade 1 Y orientation angle, node 2, rad
        207    6.388E-02, -9.090E-01,  4.118E-01         F               0         Blade 1 Z orientation angle, node 2, rad
        208    9.287E-01, -9.694E-02, -3.580E-01         F               0         Blade 1 X orientation angle, node 3, rad
        209    3.654E-01,  4.053E-01,  8.380E-01         F               0         Blade 1 Y orientation angle, node 3, rad
        210    6.388E-02, -9.090E-01,  4.118E-01         F               0         Blade 1 Z orientation angle, node 3, rad
        211    9.433E-01, -7.974E-02, -3.223E-01         F               0         Blade 1 X orientation angle, node 4, rad
        212    3.258E-01,  4.091E-01,  8.523E-01         F               0         Blade 1 Y orientation angle, node 4, rad
        213    6.388E-02, -9.090E-01,  4.118E-01         F               0         Blade 1 Z orientation angle, node 4, rad
        214    9.536E-01, -6.613E-02, -2.939E-01         F               0         Blade 1 X orientation angle, node 5, rad
        215    2.944E-01,  4.115E-01,  8.626E-01         F               0         Blade 1 Y orientation angle, node 5, rad
        216    6.388E-02, -9.090E-01,  4.118E-01         F               0         Blade 1 Z orientation angle, node 5, rad
        217    9.610E-01, -5.519E-02, -2.709E-01         F               0         Blade 1 X orientation angle, node 6, rad
        218    2.690E-01,  4.131E-01,  8.701E-01         F               0         Blade 1 Y orientation angle, node 6, rad
        219    6.388E-02, -9.090E-01,  4.118E-01         F               0         Blade 1 Z orientation angle, node 6, rad
        220    9.667E-01, -4.617E-02, -2.519E-01         F               0         Blade 1 X orientation angle, node 7, rad
        221    2.480E-01,  4.142E-01,  8.758E-01         F               0         Blade 1 Y orientation angle, node 7, rad
        222    6.388E-02, -9.090E-01,  4.118E-01         F               0         Blade 1 Z orientation angle, node 7, rad
        223    9.710E-01, -3.864E-02, -2.359E-01         F               0         Blade 1 X orientation angle, node 8, rad
        224    2.304E-01,  4.150E-01,  8.802E-01         F               0         Blade 1 Y orientation angle, node 8, rad
        225    6.388E-02, -9.090E-01,  4.118E-01         F               0         Blade 1 Z orientation angle, node 8, rad
        226    9.744E-01, -3.227E-02, -2.224E-01         F               0         Blade 1 X orientation angle, node 9, rad
        227    2.154E-01,  4.155E-01,  8.837E-01         F               0         Blade 1 Y orientation angle, node 9, rad