
Linearized model: Predictions were generated on 31-Jan-2024 at 12:35:17 using OpenFAST, compiled as a 64-bit application using single precision at commit v3.5.1
 linked with  NWTC Subroutine Library; ElastoDyn; InflowWind; AeroDyn; ServoDyn; HydroDyn; MAP++ (<1.20.10>, <Oct-20-2023>)

Description from the FAST input file: CCT-9 Campign 4 model. Input files to be run with OpenFAST 3.5.0. GitHub branch from Lu Wang (https://github.com/luwang00/openfast/tree/dev) compiled on March 7, 2023.

Simulation information:
   Simulation time:                   504.2000 s
   Rotor Speed:                         0.8939 rad/s
   Azimuth:                             4.4999 rad
   Wind Speed:                         10.0000 m/s
   Number of continuous states:         0
   Number of discrete states:           0
   Number of constraint states:         0
   Number of inputs:                 1746
   Number of outputs:                   4
   Jacobians included in this file?    No

Order of inputs:
     Column   Operating Point                     Rotating Frame? Derivative Order Description
   ---------- ---------------                     --------------- ---------------- -----------
          1    8.513E+00                                 F               0         Tower X translation displacement, node 1, m
          2   -1.355E+00                                 F               0         Tower Y translation displacement, node 1, m
          3   -8.585E-02                                 F               0         Tower Z translation displacement, node 1, m
          4    8.750E+00                                 F               0         Tower X translation displacement, node 2, m
          5   -1.887E+00                                 F               0         Tower Y translation displacement, node 2, m
          6   -9.961E-02                                 F               0         Tower Z translation displacement, node 2, m
          7    9.000E+00                                 F               0         Tower X translation displacement, node 3, m
          8   -2.420E+00                                 F               0         Tower Y translation displacement, node 3, m
          9   -1.136E-01                                 F               0         Tower Z translation displacement, node 3, m
         10    9.259E+00                                 F               0         Tower X translation displacement, node 4, m
         11   -2.952E+00                                 F               0         Tower Y translation displacement, node 4, m
         12   -1.278E-01                                 F               0         Tower Z translation displacement, node 4, m
         13    9.527E+00                                 F               0         Tower X translation displacement, node 5, m
         14   -3.485E+00                                 F               0         Tower Y translation displacement, node 5, m
         15   -1.422E-01                                 F               0         Tower Z translation displacement, node 5, m
         16    9.800E+00                                 F               0         Tower X translation displacement, node 6, m
         17   -4.017E+00                                 F               0         Tower Y translation displacement, node 6, m
         18   -1.567E-01                                 F               0         Tower Z translation displacement, node 6, m
         19    1.008E+01                                 F               0         Tower X translation displacement, node 7, m
         20   -4.549E+00                                 F               0         Tower Y translation displacement, node 7, m
         21   -1.713E-01                                 F               0         Tower Z translation displacement, node 7, m
         22    1.036E+01                                 F               0         Tower X translation displacement, node 8, m
         23   -5.082E+00                                 F               0         Tower Y translation displacement, node 8, m
         24   -1.860E-01                                 F               0         Tower Z translation displacement, node 8, m
         25    1.064E+01                                 F               0         Tower X translation displacement, node 9, m
         26   -5.614E+00                                 F               0         Tower Y translation displacement, node 9, m
         27   -2.007E-01                                 F               0         Tower Z translation displacement, node 9, m
         28    1.093E+01                                 F               0         Tower X translation displacement, node 10, m
         29   -6.146E+00                                 F               0         Tower Y translation displacement, node 10, m
         30   -2.154E-01                                 F               0         Tower Z translation displacement, node 10, m
         31    1.121E+01                                 F               0         Tower X translation displacement, node 11, m
         32   -6.679E+00                                 F               0         Tower Y translation displacement, node 11, m
         33   -2.302E-01                                 F               0         Tower Z translation displacement, node 11, m
         34    9.998E-01,  7.493E-03, -1.841E-02         F               0         Tower X orientation angle, node 1, rad
         35   -6.691E-03,  9.990E-01,  4.325E-02         F               0         Tower Y orientation angle, node 1, rad
         36    1.872E-02, -4.312E-02,  9.989E-01         F               0         Tower Z orientation angle, node 1, rad
         37    9.998E-01,  7.537E-03, -1.943E-02         F               0         Tower X orientation angle, node 2, rad
         38   -6.691E-03,  9.990E-01,  4.325E-02         F               0         Tower Y orientation angle, node 2, rad
         39    1.974E-02, -4.311E-02,  9.989E-01         F               0         Tower Z orientation angle, node 2, rad
         40    9.998E-01,  7.574E-03, -2.030E-02         F               0         Tower X orientation angle, node 3, rad
         41   -6.691E-03,  9.990E-01,  4.325E-02         F               0         Tower Y orientation angle, node 3, rad
         42    2.061E-02, -4.310E-02,  9.989E-01         F               0         Tower Z orientation angle, node 3, rad
         43    9.998E-01,  7.605E-03, -2.102E-02         F               0         Tower X orientation angle, node 4, rad
         44   -6.691E-03,  9.990E-01,  4.325E-02         F               0         Tower Y orientation angle, node 4, rad
         45    2.132E-02, -4.310E-02,  9.988E-01         F               0         Tower Z orientation angle, node 4, rad
         46    9.997E-01,  7.629E-03, -2.158E-02         F               0         Tower X orientation angle, node 5, rad
         47   -6.691E-03,  9.990E-01,  4.325E-02         F               0         Tower Y orientation angle, node 5, rad
         48    2.189E-02, -4.309E-02,  9.988E-01         F               0         Tower Z orientation angle, node 5, rad
         49    9.997E-01,  7.648E-03, -2.201E-02         F               0         Tower X orientation angle, node 6, rad
         50   -6.691E-03,  9.990E-01,  4.325E-02         F               0         Tower Y orientation angle, node 6, rad
         51    2.232E-02, -4.309E-02,  9.988E-01         F               0         Tower Z orientation angle, node 6, rad
         52    9.997E-01,  7.661E-03, -2.231E-02         F               0         Tower X orientation angle, node 7, rad
         53   -6.691E-03,  9.990E-01,  4.325E-02         F               0         Tower Y orientation angle, node 7, rad
         54    2.262E-02, -4.309E-02,  9.988E-01         F               0         Tower Z orientation angle, node 7, rad
         55    9.997E-01,  7.670E-03, -2.252E-02         F               0         Tower X orientation angle, node 8, rad
         56   -6.691E-03,  9.990E-01,  4.325E-02         F               0         Tower Y orientation angle, node 8, rad
         57    2.283E-02, -4.308E-02,  9.988E-01         F               0         Tower Z orientation angle, node 8, rad
         58    9.997E-01,  7.675E-03, -2.265E-02         F               0         Tower X orientation angle, node 9, rad
         59   -6.691E-03,  9.990E-01,  4.325E-02         F               0         Tower Y orientation angle, node 9, rad
         60    2.296E-02, -4.308E-02,  9.988E-01         F               0         Tower Z orientation angle, node 9, rad
         61    9.997E-01,  7.678E-03, -2.272E-02         F               0         Tower X orientation angle, node 10, rad
         62   -6.691E-03,  9.990E-01,  4.325E-02         F               0         Tower Y orientation angle, node 10, rad
         63    2.303E-02, -4.308E-02,  9.988E-01         F               0         Tower Z orientation angle, node 10, rad
         64    9.997E-01,  7.680E-03, -2.274E-02         F               0         Tower X orientation angle, node 11, rad
         65   -6.691E-03,  9.990E-01,  4.325E-02         F               0         Tower Y orientation angle, node 11, rad
         66    2.306E-02, -4.308E-02,  9.988E-01         F               0         Tower Z orientation angle, node 11, rad
         67   -1.500E-03                                 F               0         Tower X translation velocity, node 1, m/s
         68    1.497E-06                                 F               0         Tower Y translation velocity, node 1, m/s
         69   -7.530E-03                                 F               0         Tower Z translation velocity, node 1, m/s
         70   -1.495E-03                                 F               0         Tower X translation velocity, node 2, m/s
         71    2.548E-06                                 F               0         Tower Y translation velocity, node 2, m/s
         72   -7.530E-03                                 F               0         Tower Z translation velocity, node 2, m/s
         73   -1.484E-03                                 F               0         Tower X translation velocity, node 3, m/s
         74    3.702E-06                                 F               0         Tower Y translation velocity, node 3, m/s
         75   -7.530E-03                                 F               0         Tower Z translation velocity, node 3, m/s
         76   -1.469E-03                                 F               0         Tower X translation velocity, node 4, m/s
         77    4.931E-06                                 F               0         Tower Y translation velocity, node 4, m/s
         78   -7.530E-03                                 F               0         Tower Z translation velocity, node 4, m/s
         79   -1.451E-03                                 F               0         Tower X translation velocity, node 5, m/s
         80    6.219E-06                                 F               0         Tower Y translation velocity, node 5, m/s
         81   -7.531E-03                                 F               0         Tower Z translation velocity, node 5, m/s
         82   -1.431E-03                                 F               0         Tower X translation velocity, node 6, m/s
         83    7.548E-06                                 F               0         Tower Y translation velocity, node 6, m/s
         84   -7.531E-03                                 F               0         Tower Z translation velocity, node 6, m/s
         85   -1.409E-03                                 F               0         Tower X translation velocity, node 7, m/s
         86    8.905E-06                                 F               0         Tower Y translation velocity, node 7, m/s
         87   -7.531E-03                                 F               0         Tower Z translation velocity, node 7, m/s
         88   -1.387E-03                                 F               0         Tower X translation velocity, node 8, m/s
         89    1.028E-05                                 F               0         Tower Y translation velocity, node 8, m/s
         90   -7.532E-03                                 F               0         Tower Z translation velocity, node 8, m/s
         91   -1.365E-03                                 F               0         Tower X translation velocity, node 9, m/s
         92    1.167E-05                                 F               0         Tower Y translation velocity, node 9, m/s
         93   -7.532E-03                                 F               0         Tower Z translation velocity, node 9, m/s
         94   -1.343E-03                                 F               0         Tower X translation velocity, node 10, m/s
         95    1.306E-05                                 F               0         Tower Y translation velocity, node 10, m/s
         96   -7.533E-03                                 F               0         Tower Z translation velocity, node 10, m/s
         97   -1.321E-03                                 F               0         Tower X translation velocity, node 11, m/s
         98    1.445E-05                                 F               0         Tower Y translation velocity, node 11, m/s
         99   -7.533E-03                                 F               0         Tower Z translation velocity, node 11, m/s
        100    1.140E+01                                 F               0         Hub X translation displacement, node 1, m
        101   -7.100E+00                                 F               0         Hub Y translation displacement, node 1, m
        102    6.091E-03                                 F               0         Hub Z translation displacement, node 1, m
        103    9.918E-01,  1.214E-02, -1.270E-01         F               0         Hub X orientation angle, node 1, rad
        104   -1.232E-01, -1.696E-01, -9.778E-01         F               0         Hub Y orientation angle, node 1, rad
        105   -3.341E-02,  9.854E-01, -1.667E-01         F               0         Hub Z orientation angle, node 1, rad
        106    8.866E-01                                 F               0         Hub X rotation velocity, node 1, rad/s
        107    1.085E-02                                 F               0         Hub Y rotation velocity, node 1, rad/s
        108   -1.135E-01                                 F               0         Hub Z rotation velocity, node 1, rad/s
        109    9.950E-01,  1.717E-02, -9.796E-02         F               0         Blade root 1 X orientation angle, node 1, rad
        110   -9.367E-02, -1.691E-01, -9.811E-01         F               0         Blade root 1 Y orientation angle, node 1, rad
        111   -3.341E-02,  9.854E-01, -1.667E-01         F               0         Blade root 1 Z orientation angle, node 1, rad
        112    9.904E-01, -1.570E-02, -1.372E-01         F               0         Blade root 2 X orientation angle, node 1, rad
        113    6.205E-02,  9.382E-01,  3.406E-01         F               0         Blade root 2 Y orientation angle, node 1, rad
        114    1.234E-01, -3.459E-01,  9.301E-01         F               0         Blade root 2 Z orientation angle, node 1, rad
        115    9.887E-01,  3.494E-02, -1.458E-01         F               0         Blade root 3 X orientation angle, node 1, rad
        116    1.199E-01, -7.679E-01,  6.292E-01         F               0         Blade root 3 Y orientation angle, node 1, rad
        117   -8.995E-02, -6.396E-01, -7.634E-01         F               0         Blade root 3 Z orientation angle, node 1, rad
        118    1.063E+01                                 F               0         Blade 1 X translation displacement, node 1, m
        119   -1.640E+00                                 F               0         Blade 1 Y translation displacement, node 1, m
        120   -6.427E+00                                 F               0         Blade 1 Z translation displacement, node 1, m
        121    1.045E+01                                 F               0         Blade 1 X translation displacement, node 2, m
        122   -3.249E-01                                 F               0         Blade 1 Y translation displacement, node 2, m
        123   -7.977E+00                                 F               0         Blade 1 Z translation displacement, node 2, m
        124    7.943E+00                                 F               0         Blade 1 X translation displacement, node 3, m
        125    1.756E+01                                 F               0         Blade 1 Y translation displacement, node 3, m
        126   -2.906E+01                                 F               0         Blade 1 Z translation displacement, node 3, m
        127    7.409E+00                                 F               0         Blade 1 X translation displacement, node 4, m
        128    2.137E+01                                 F               0         Blade 1 Y translation displacement, node 4, m
        129   -3.355E+01                                 F               0         Blade 1 Z translation displacement, node 4, m
        130    6.876E+00                                 F               0         Blade 1 X translation displacement, node 5, m
        131    2.519E+01                                 F               0         Blade 1 Y translation displacement, node 5, m
        132   -3.804E+01                                 F               0         Blade 1 Z translation displacement, node 5, m
        133    6.342E+00                                 F               0         Blade 1 X translation displacement, node 6, m
        134    2.900E+01                                 F               0         Blade 1 Y translation displacement, node 6, m
        135   -4.253E+01                                 F               0         Blade 1 Z translation displacement, node 6, m
        136    5.809E+00                                 F               0         Blade 1 X translation displacement, node 7, m
        137    3.281E+01                                 F               0         Blade 1 Y translation displacement, node 7, m
        138   -4.702E+01                                 F               0         Blade 1 Z translation displacement, node 7, m
        139    5.275E+00                                 F               0         Blade 1 X translation displacement, node 8, m
        140    3.662E+01                                 F               0         Blade 1 Y translation displacement, node 8, m
        141   -5.151E+01                                 F               0         Blade 1 Z translation displacement, node 8, m
        142    4.742E+00                                 F               0         Blade 1 X translation displacement, node 9, m
        143    4.043E+01                                 F               0         Blade 1 Y translation displacement, node 9, m
        144   -5.600E+01                                 F               0         Blade 1 Z translation displacement, node 9, m
        145    4.208E+00                                 F               0         Blade 1 X translation displacement, node 10, m
        146    4.424E+01                                 F               0         Blade 1 Y translation displacement, node 10, m
        147   -6.049E+01                                 F               0         Blade 1 Z translation displacement, node 10, m
        148    3.675E+00                                 F               0         Blade 1 X translation displacement, node 11, m
        149    4.805E+01                                 F               0         Blade 1 Y translation displacement, node 11, m
        150   -6.499E+01                                 F               0         Blade 1 Z translation displacement, node 11, m
        151    3.141E+00                                 F               0         Blade 1 X translation displacement, node 12, m
        152    5.187E+01                                 F               0         Blade 1 Y translation displacement, node 12, m
        153   -6.948E+01                                 F               0         Blade 1 Z translation displacement, node 12, m
        154    2.608E+00                                 F               0         Blade 1 X translation displacement, node 13, m
        155    5.568E+01                                 F               0         Blade 1 Y translation displacement, node 13, m
        156   -7.397E+01                                 F               0         Blade 1 Z translation displacement, node 13, m
        157    2.074E+00                                 F               0         Blade 1 X translation displacement, node 14, m
        158    5.949E+01                                 F               0         Blade 1 Y translation displacement, node 14, m
        159   -7.846E+01                                 F               0         Blade 1 Z translation displacement, node 14, m
        160    1.541E+00                                 F               0         Blade 1 X translation displacement, node 15, m
        161    6.330E+01                                 F               0         Blade 1 Y translation displacement, node 15, m
        162   -8.295E+01                                 F               0         Blade 1 Z translation displacement, node 15, m
        163    1.007E+00                                 F               0         Blade 1 X translation displacement, node 16, m
        164    6.711E+01                                 F               0         Blade 1 Y translation displacement, node 16, m
        165   -8.744E+01                                 F               0         Blade 1 Z translation displacement, node 16, m
        166    4.737E-01                                 F               0         Blade 1 X translation displacement, node 17, m
        167    7.092E+01                                 F               0         Blade 1 Y translation displacement, node 17, m
        168   -9.193E+01                                 F               0         Blade 1 Z translation displacement, node 17, m
        169   -5.977E-02                                 F               0         Blade 1 X translation displacement, node 18, m
        170    7.473E+01                                 F               0         Blade 1 Y translation displacement, node 18, m
        171   -9.642E+01                                 F               0         Blade 1 Z translation displacement, node 18, m
        172   -5.934E-01                                 F               0         Blade 1 X translation displacement, node 19, m
        173    7.855E+01                                 F               0         Blade 1 Y translation displacement, node 19, m
        174   -1.009E+02                                 F               0         Blade 1 Z translation displacement, node 19, m
        175   -1.127E+00                                 F               0         Blade 1 X translation displacement, node 20, m
        176    8.236E+01                                 F               0         Blade 1 Y translation displacement, node 20, m
        177   -1.054E+02                                 F               0         Blade 1 Z translation displacement, node 20, m
        178   -1.660E+00                                 F               0         Blade 1 X translation displacement, node 21, m
        179    8.617E+01                                 F               0         Blade 1 Y translation displacement, node 21, m
        180   -1.099E+02                                 F               0         Blade 1 Z translation displacement, node 21, m
        181   -2.194E+00                                 F               0         Blade 1 X translation displacement, node 22, m
        182    8.998E+01                                 F               0         Blade 1 Y translation displacement, node 22, m
        183   -1.144E+02                                 F               0         Blade 1 Z translation displacement, node 22, m
        184   -2.727E+00                                 F               0         Blade 1 X translation displacement, node 23, m
        185    9.379E+01                                 F               0         Blade 1 Y translation displacement, node 23, m
        186   -1.189E+02                                 F               0         Blade 1 Z translation displacement, node 23, m
        187   -3.261E+00                                 F               0         Blade 1 X translation displacement, node 24, m
        188    9.760E+01                                 F               0         Blade 1 Y translation displacement, node 24, m
        189   -1.234E+02                                 F               0         Blade 1 Z translation displacement, node 24, m
        190   -3.794E+00                                 F               0         Blade 1 X translation displacement, node 25, m
        191    1.014E+02                                 F               0         Blade 1 Y translation displacement, node 25, m
        192   -1.279E+02                                 F               0         Blade 1 Z translation displacement, node 25, m
        193   -4.328E+00                                 F               0         Blade 1 X translation displacement, node 26, m
        194    1.052E+02                                 F               0         Blade 1 Y translation displacement, node 26, m
        195   -1.324E+02                                 F               0         Blade 1 Z translation displacement, node 26, m
        196   -4.861E+00                                 F               0         Blade 1 X translation displacement, node 27, m
        197    1.090E+02                                 F               0         Blade 1 Y translation displacement, node 27, m
        198   -1.368E+02                                 F               0         Blade 1 Z translation displacement, node 27, m
        199   -5.314E+00                                 F               0         Blade 1 X translation displacement, node 28, m
        200    1.123E+02                                 F               0         Blade 1 Y translation displacement, node 28, m
        201   -1.407E+02                                 F               0         Blade 1 Z translation displacement, node 28, m
        202    9.283E-01,  9.241E-02,  3.602E-01         F               0         Blade 1 X orientation angle, node 1, rad
        203    3.704E-01, -1.427E-01, -9.179E-01         F               0         Blade 1 Y orientation angle, node 1, rad
        204   -3.341E-02,  9.854E-01, -1.667E-01         F               0         Blade 1 Z orientation angle, node 1, rad
        205    9.283E-01,  9.241E-02,  3.602E-01         F               0         Blade 1 X orientation angle, node 2, rad
        206    3.704E-01, -1.427E-01, -9.179E-01         F               0         Blade 1 Y orientation angle, node 2, rad
        207   -3.341E-02,  9.854E-01, -1.667E-01         F               0         Blade 1 Z orientation angle, node 2, rad
        208    9.896E-01,  5.595E-02,  1.324E-01         F               0         Blade 1 X orientation angle, node 3, rad
        209    1.398E-01, -1.605E-01, -9.771E-01         F               0         Blade 1 Y orientation angle, node 3, rad
        210   -3.341E-02,  9.854E-01, -1.667E-01         F               0         Blade 1 Z orientation angle, node 3, rad
        211    9.946E-01,  4.913E-02,  9.105E-02         F               0         Blade 1 X orientation angle, node 4, rad
        212    9.791E-02, -1.628E-01, -9.818E-01         F               0         Blade 1 Y orientation angle, node 4, rad
        213   -3.341E-02,  9.854E-01, -1.667E-01         F               0         Blade 1 Z orientation angle, node 4, rad
        214    9.973E-01,  4.370E-02,  5.845E-02         F               0         Blade 1 X orientation angle, node 5, rad
        215    6.488E-02, -1.643E-01, -9.843E-01         F               0         Blade 1 Y orientation angle, node 5, rad
        216   -3.341E-02,  9.854E-01, -1.667E-01         F               0         Blade 1 Z orientation angle, node 5, rad
        217    9.987E-01,  3.933E-02,  3.232E-02         F               0         Blade 1 X orientation angle, node 6, rad
        218    3.840E-02, -1.654E-01, -9.855E-01         F               0         Blade 1 Y orientation angle, node 6, rad
        219   -3.341E-02,  9.854E-01, -1.667E-01         F               0         Blade 1 Z orientation angle, node 6, rad
        220    9.993E-01,  3.571E-02,  1.081E-02         F               0         Blade 1 X orientation angle, node 7, rad
        221    1.661E-02, -1.662E-01, -9.859E-01         F               0         Blade 1 Y orientation angle, node 7, rad
        222   -3.341E-02,  9.854E-01, -1.667E-01         F               0         Blade 1 Z orientation angle, node 7, rad
        223    9.994E-01,  3.269E-02, -7.086E-03         F               0         Blade 1 X orientation angle, node 8, rad
        224   -1.534E-03, -1.668E-01, -9.860E-01         F               0         Blade 1 Y orientation angle, node 8, rad
        225   -3.341E-02,  9.854E-01, -1.667E-01         F               0         Blade 1 Z orientation angle, node 8, rad
        226    9.993E-01,  3.012E-02, -2.223E-02         F               0         Blade 1 X orientation angle, node 9, rad
        227   -1.688E-02, -1.673E-01, -9.858E-01         F               0         Blade 1 Y orientation angle, node 9, rad