
Linearized model: Predictions were generated on 31-Jan-2024 at 12:35:17 using OpenFAST, compiled as a 64-bit application using single precision at commit v3.5.1
 linked with  NWTC Subroutine Library; ElastoDyn; InflowWind; AeroDyn; ServoDyn; HydroDyn; MAP++ (<1.20.10>, <Oct-20-2023>)

Description from the FAST input file: CCT-9 Campign 4 model. Input files to be run with OpenFAST 3.5.0. GitHub branch from Lu Wang (https://github.com/luwang00/openfast/tree/dev) compiled on March 7, 2023.

Simulation information:
   Simulation time:                   503.9500 s
   Rotor Speed:                         0.8939 rad/s
   Azimuth:                             4.2764 rad
   Wind Speed:                         10.0000 m/s
   Number of continuous states:         0
   Number of discrete states:           0
   Number of constraint states:         0
   Number of inputs:                  303
   Number of outputs:                   1
   Jacobians included in this file?    No

Order of inputs:
     Column   Operating Point                     Rotating Frame? Derivative Order Description
   ---------- ---------------                     --------------- ---------------- -----------
          1   -1.080E+01                                 F               0         X-component position of node 1 (hub), m
          2    0.000E+00                                 F               0         Y-component position of node 1 (hub), m
          3    1.497E+02                                 F               0         Z-component position of node 1 (hub), m
          4    2.633E-01                                 F               0         X-component position of node 2 (blade 1, node 1), m
          5   -1.984E+00                                 F               0         Y-component position of node 2 (blade 1, node 1), m
          6    1.476E+02                                 F               0         Z-component position of node 2 (blade 1, node 1), m
          7    1.834E-01                                 F               0         X-component position of node 3 (blade 1, node 2), m
          8   -7.518E-01                                 F               0         Y-component position of node 3 (blade 1, node 2), m
          9    1.471E+02                                 F               0         Z-component position of node 3 (blade 1, node 2), m
         10   -9.035E-01                                 F               0         X-component position of node 4 (blade 1, node 3), m
         11    1.601E+01                                 F               0         Y-component position of node 4 (blade 1, node 3), m
         12    1.403E+02                                 F               0         Z-component position of node 4 (blade 1, node 3), m
         13   -1.135E+00                                 F               0         X-component position of node 5 (blade 1, node 4), m
         14    1.958E+01                                 F               0         Y-component position of node 5 (blade 1, node 4), m
         15    1.388E+02                                 F               0         Z-component position of node 5 (blade 1, node 4), m
         16   -1.367E+00                                 F               0         X-component position of node 6 (blade 1, node 5), m
         17    2.315E+01                                 F               0         Y-component position of node 6 (blade 1, node 5), m
         18    1.373E+02                                 F               0         Z-component position of node 6 (blade 1, node 5), m
         19   -1.598E+00                                 F               0         X-component position of node 7 (blade 1, node 6), m
         20    2.672E+01                                 F               0         Y-component position of node 7 (blade 1, node 6), m
         21    1.359E+02                                 F               0         Z-component position of node 7 (blade 1, node 6), m
         22   -1.830E+00                                 F               0         X-component position of node 8 (blade 1, node 7), m
         23    3.029E+01                                 F               0         Y-component position of node 8 (blade 1, node 7), m
         24    1.344E+02                                 F               0         Z-component position of node 8 (blade 1, node 7), m
         25   -2.061E+00                                 F               0         X-component position of node 9 (blade 1, node 8), m
         26    3.387E+01                                 F               0         Y-component position of node 9 (blade 1, node 8), m
         27    1.329E+02                                 F               0         Z-component position of node 9 (blade 1, node 8), m
         28   -2.293E+00                                 F               0         X-component position of node 10 (blade 1, node 9), m
         29    3.744E+01                                 F               0         Y-component position of node 10 (blade 1, node 9), m
         30    1.315E+02                                 F               0         Z-component position of node 10 (blade 1, node 9), m
         31   -2.525E+00                                 F               0         X-component position of node 11 (blade 1, node 10), m
         32    4.101E+01                                 F               0         Y-component position of node 11 (blade 1, node 10), m
         33    1.300E+02                                 F               0         Z-component position of node 11 (blade 1, node 10), m
         34   -2.756E+00                                 F               0         X-component position of node 12 (blade 1, node 11), m
         35    4.458E+01                                 F               0         Y-component position of node 12 (blade 1, node 11), m
         36    1.285E+02                                 F               0         Z-component position of node 12 (blade 1, node 11), m
         37   -2.988E+00                                 F               0         X-component position of node 13 (blade 1, node 12), m
         38    4.815E+01                                 F               0         Y-component position of node 13 (blade 1, node 12), m
         39    1.271E+02                                 F               0         Z-component position of node 13 (blade 1, node 12), m
         40   -3.219E+00                                 F               0         X-component position of node 14 (blade 1, node 13), m
         41    5.172E+01                                 F               0         Y-component position of node 14 (blade 1, node 13), m
         42    1.256E+02                                 F               0         Z-component position of node 14 (blade 1, node 13), m
         43   -3.451E+00                                 F               0         X-component position of node 15 (blade 1, node 14), m
         44    5.529E+01                                 F               0         Y-component position of node 15 (blade 1, node 14), m
         45    1.241E+02                                 F               0         Z-component position of node 15 (blade 1, node 14), m
         46   -3.682E+00                                 F               0         X-component position of node 16 (blade 1, node 15), m
         47    5.886E+01                                 F               0         Y-component position of node 16 (blade 1, node 15), m
         48    1.227E+02                                 F               0         Z-component position of node 16 (blade 1, node 15), m
         49   -3.914E+00                                 F               0         X-component position of node 17 (blade 1, node 16), m
         50    6.244E+01                                 F               0         Y-component position of node 17 (blade 1, node 16), m
         51    1.212E+02                                 F               0         Z-component position of node 17 (blade 1, node 16), m
         52   -4.146E+00                                 F               0         X-component position of node 18 (blade 1, node 17), m
         53    6.601E+01                                 F               0         Y-component position of node 18 (blade 1, node 17), m
         54    1.197E+02                                 F               0         Z-component position of node 18 (blade 1, node 17), m
         55   -4.377E+00                                 F               0         X-component position of node 19 (blade 1, node 18), m
         56    6.958E+01                                 F               0         Y-component position of node 19 (blade 1, node 18), m
         57    1.183E+02                                 F               0         Z-component position of node 19 (blade 1, node 18), m
         58   -4.609E+00                                 F               0         X-component position of node 20 (blade 1, node 19), m
         59    7.315E+01                                 F               0         Y-component position of node 20 (blade 1, node 19), m
         60    1.168E+02                                 F               0         Z-component position of node 20 (blade 1, node 19), m
         61   -4.840E+00                                 F               0         X-component position of node 21 (blade 1, node 20), m
         62    7.672E+01                                 F               0         Y-component position of node 21 (blade 1, node 20), m
         63    1.153E+02                                 F               0         Z-component position of node 21 (blade 1, node 20), m
         64   -5.072E+00                                 F               0         X-component position of node 22 (blade 1, node 21), m
         65    8.029E+01                                 F               0         Y-component position of node 22 (blade 1, node 21), m
         66    1.139E+02                                 F               0         Z-component position of node 22 (blade 1, node 21), m
         67   -5.303E+00                                 F               0         X-component position of node 23 (blade 1, node 22), m
         68    8.386E+01                                 F               0         Y-component position of node 23 (blade 1, node 22), m
         69    1.124E+02                                 F               0         Z-component position of node 23 (blade 1, node 22), m
         70   -5.535E+00                                 F               0         X-component position of node 24 (blade 1, node 23), m
         71    8.743E+01                                 F               0         Y-component position of node 24 (blade 1, node 23), m
         72    1.109E+02                                 F               0         Z-component position of node 24 (blade 1, node 23), m
         73   -5.767E+00                                 F               0         X-component position of node 25 (blade 1, node 24), m
         74    9.101E+01                                 F               0         Y-component position of node 25 (blade 1, node 24), m
         75    1.095E+02                                 F               0         Z-component position of node 25 (blade 1, node 24), m
         76   -5.998E+00                                 F               0         X-component position of node 26 (blade 1, node 25), m
         77    9.458E+01                                 F               0         Y-component position of node 26 (blade 1, node 25), m
         78    1.080E+02                                 F               0         Z-component position of node 26 (blade 1, node 25), m
         79   -6.230E+00                                 F               0         X-component position of node 27 (blade 1, node 26), m
         80    9.815E+01                                 F               0         Y-component position of node 27 (blade 1, node 26), m
         81    1.065E+02                                 F               0         Z-component position of node 27 (blade 1, node 26), m
         82   -6.461E+00                                 F               0         X-component position of node 28 (blade 1, node 27), m
         83    1.017E+02                                 F               0         Y-component position of node 28 (blade 1, node 27), m
         84    1.051E+02                                 F               0         Z-component position of node 28 (blade 1, node 27), m
         85   -6.658E+00                                 F               0         X-component position of node 29 (blade 1, node 28), m
         86    1.047E+02                                 F               0         Y-component position of node 29 (blade 1, node 28), m
         87    1.038E+02                                 F               0         Z-component position of node 29 (blade 1, node 28), m
         88    1.301E+00                                 F               0         X-component position of node 30 (blade 2, node 1), m
         89   -7.816E+00                                 F               0         Y-component position of node 30 (blade 2, node 1), m
         90    1.552E+02                                 F               0         Z-component position of node 30 (blade 2, node 1), m
         91    1.472E+00                                 F               0         X-component position of node 31 (blade 2, node 2), m
         92   -7.989E+00                                 F               0         Y-component position of node 31 (blade 2, node 2), m
         93    1.565E+02                                 F               0         Z-component position of node 31 (blade 2, node 2), m
         94    3.787E+00                                 F               0         X-component position of node 32 (blade 2, node 3), m
         95   -1.034E+01                                 F               0         Y-component position of node 32 (blade 2, node 3), m
         96    1.744E+02                                 F               0         Z-component position of node 32 (blade 2, node 3), m
         97    4.280E+00                                 F               0         X-component position of node 33 (blade 2, node 4), m
         98   -1.084E+01                                 F               0         Y-component position of node 33 (blade 2, node 4), m
         99    1.782E+02                                 F               0         Z-component position of node 33 (blade 2, node 4), m
        100    4.773E+00                                 F               0         X-component position of node 34 (blade 2, node 5), m
        101   -1.134E+01                                 F               0         Y-component position of node 34 (blade 2, node 5), m
        102    1.820E+02                                 F               0         Z-component position of node 34 (blade 2, node 5), m
        103    5.266E+00                                 F               0         X-component position of node 35 (blade 2, node 6), m
        104   -1.184E+01                                 F               0         Y-component position of node 35 (blade 2, node 6), m
        105    1.858E+02                                 F               0         Z-component position of node 35 (blade 2, node 6), m
        106    5.759E+00                                 F               0         X-component position of node 36 (blade 2, node 7), m
        107   -1.234E+01                                 F               0         Y-component position of node 36 (blade 2, node 7), m
        108    1.896E+02                                 F               0         Z-component position of node 36 (blade 2, node 7), m
        109    6.253E+00                                 F               0         X-component position of node 37 (blade 2, node 8), m
        110   -1.284E+01                                 F               0         Y-component position of node 37 (blade 2, node 8), m
        111    1.934E+02                                 F               0         Z-component position of node 37 (blade 2, node 8), m
        112    6.746E+00                                 F               0         X-component position of node 38 (blade 2, node 9), m
        113   -1.334E+01                                 F               0         Y-component position of node 38 (blade 2, node 9), m
        114    1.972E+02                                 F               0         Z-component position of node 38 (blade 2, node 9), m
        115    7.239E+00                                 F               0         X-component position of node 39 (blade 2, node 10), m
        116   -1.384E+01                                 F               0         Y-component position of node 39 (blade 2, node 10), m
        117    2.010E+02                                 F               0         Z-component position of node 39 (blade 2, node 10), m
        118    7.732E+00                                 F               0         X-component position of node 40 (blade 2, node 11), m
        119   -1.434E+01                                 F               0         Y-component position of node 40 (blade 2, node 11), m
        120    2.048E+02                                 F               0         Z-component position of node 40 (blade 2, node 11), m
        121    8.226E+00                                 F               0         X-component position of node 41 (blade 2, node 12), m
        122   -1.484E+01                                 F               0         Y-component position of node 41 (blade 2, node 12), m
        123    2.086E+02                                 F               0         Z-component position of node 41 (blade 2, node 12), m
        124    8.719E+00                                 F               0         X-component position of node 42 (blade 2, node 13), m
        125   -1.534E+01                                 F               0         Y-component position of node 42 (blade 2, node 13), m
        126    2.124E+02                                 F               0         Z-component position of node 42 (blade 2, node 13), m
        127    9.212E+00                                 F               0         X-component position of node 43 (blade 2, node 14), m
        128   -1.584E+01                                 F               0         Y-component position of node 43 (blade 2, node 14), m
        129    2.162E+02                                 F               0         Z-component position of node 43 (blade 2, node 14), m
        130    9.705E+00                                 F               0         X-component position of node 44 (blade 2, node 15), m
        131   -1.634E+01                                 F               0         Y-component position of node 44 (blade 2, node 15), m
        132    2.200E+02                                 F               0         Z-component position of node 44 (blade 2, node 15), m
        133    1.020E+01                                 F               0         X-component position of node 45 (blade 2, node 16), m
        134   -1.684E+01                                 F               0         Y-component position of node 45 (blade 2, node 16), m
        135    2.238E+02                                 F               0         Z-component position of node 45 (blade 2, node 16), m
        136    1.069E+01                                 F               0         X-component position of node 46 (blade 2, node 17), m
        137   -1.734E+01                                 F               0         Y-component position of node 46 (blade 2, node 17), m
        138    2.276E+02                                 F               0         Z-component position of node 46 (blade 2, node 17), m
        139    1.118E+01                                 F               0         X-component position of node 47 (blade 2, node 18), m
        140   -1.784E+01                                 F               0         Y-component position of node 47 (blade 2, node 18), m
        141    2.314E+02                                 F               0         Z-component position of node 47 (blade 2, node 18), m
        142    1.168E+01                                 F               0         X-component position of node 48 (blade 2, node 19), m
        143   -1.834E+01                                 F               0         Y-component position of node 48 (blade 2, node 19), m
        144    2.352E+02                                 F               0         Z-component position of node 48 (blade 2, node 19), m
        145    1.217E+01                                 F               0         X-component position of node 49 (blade 2, node 20), m
        146   -1.884E+01                                 F               0         Y-component position of node 49 (blade 2, node 20), m
        147    2.390E+02                                 F               0         Z-component position of node 49 (blade 2, node 20), m
        148    1.266E+01                                 F               0         X-component position of node 50 (blade 2, node 21), m
        149   -1.934E+01                                 F               0         Y-component position of node 50 (blade 2, node 21), m
        150    2.428E+02                                 F               0         Z-component position of node 50 (blade 2, node 21), m
        151    1.316E+01                                 F               0         X-component position of node 51 (blade 2, node 22), m
        152   -1.984E+01                                 F               0         Y-component position of node 51 (blade 2, node 22), m
        153    2.466E+02                                 F               0         Z-component position of node 51 (blade 2, node 22), m
        154    1.365E+01                                 F               0         X-component position of node 52 (blade 2, node 23), m
        155   -2.034E+01                                 F               0         Y-component position of node 52 (blade 2, node 23), m
        156    2.504E+02                                 F               0         Z-component position of node 52 (blade 2, node 23), m
        157    1.414E+01                                 F               0         X-component position of node 53 (blade 2, node 24), m
        158   -2.084E+01                                 F               0         Y-component position of node 53 (blade 2, node 24), m
        159    2.542E+02                                 F               0         Z-component position of node 53 (blade 2, node 24), m
        160    1.464E+01                                 F               0         X-component position of node 54 (blade 2, node 25), m
        161   -2.134E+01                                 F               0         Y-component position of node 54 (blade 2, node 25), m
        162    2.580E+02                                 F               0         Z-component position of node 54 (blade 2, node 25), m
        163    1.513E+01                                 F               0         X-component position of node 55 (blade 2, node 26), m
        164   -2.184E+01                                 F               0         Y-component position of node 55 (blade 2, node 26), m
        165    2.618E+02                                 F               0         Z-component position of node 55 (blade 2, node 26), m
        166    1.562E+01                                 F               0         X-component position of node 56 (blade 2, node 27), m
        167   -2.234E+01                                 F               0         Y-component position of node 56 (blade 2, node 27), m
        168    2.656E+02                                 F               0         Z-component position of node 56 (blade 2, node 27), m
        169    1.604E+01                                 F               0         X-component position of node 57 (blade 2, node 28), m
        170   -2.277E+01                                 F               0         Y-component position of node 57 (blade 2, node 28), m
        171    2.689E+02                                 F               0         Z-component position of node 57 (blade 2, node 28), m
        172    2.202E-01                                 F               0         X-component position of node 58 (blade 3, node 1), m
        173   -1.150E+01                                 F               0         Y-component position of node 58 (blade 3, node 1), m
        174    1.464E+02                                 F               0         Z-component position of node 58 (blade 3, node 1), m
        175    1.299E-01                                 F               0         X-component position of node 59 (blade 3, node 2), m
        176   -1.256E+01                                 F               0         Y-component position of node 59 (blade 3, node 2), m
        177    1.456E+02                                 F               0         Z-component position of node 59 (blade 3, node 2), m
        178   -1.098E+00                                 F               0         X-component position of node 60 (blade 3, node 3), m
        179   -2.697E+01                                 F               0         Y-component position of node 60 (blade 3, node 3), m
        180    1.346E+02                                 F               0         Z-component position of node 60 (blade 3, node 3), m
        181   -1.360E+00                                 F               0         X-component position of node 61 (blade 3, node 4), m
        182   -3.004E+01                                 F               0         Y-component position of node 61 (blade 3, node 4), m
        183    1.323E+02                                 F               0         Z-component position of node 61 (blade 3, node 4), m
        184   -1.621E+00                                 F               0         X-component position of node 62 (blade 3, node 5), m
        185   -3.311E+01                                 F               0         Y-component position of node 62 (blade 3, node 5), m
        186    1.300E+02                                 F               0         Z-component position of node 62 (blade 3, node 5), m
        187   -1.883E+00                                 F               0         X-component position of node 63 (blade 3, node 6), m
        188   -3.619E+01                                 F               0         Y-component position of node 63 (blade 3, node 6), m
        189    1.276E+02                                 F               0         Z-component position of node 63 (blade 3, node 6), m
        190   -2.145E+00                                 F               0         X-component position of node 64 (blade 3, node 7), m
        191   -3.926E+01                                 F               0         Y-component position of node 64 (blade 3, node 7), m
        192    1.253E+02                                 F               0         Z-component position of node 64 (blade 3, node 7), m
        193   -2.406E+00                                 F               0         X-component position of node 65 (blade 3, node 8), m
        194   -4.233E+01                                 F               0         Y-component position of node 65 (blade 3, node 8), m
        195    1.229E+02                                 F               0         Z-component position of node 65 (blade 3, node 8), m
        196   -2.668E+00                                 F               0         X-component position of node 66 (blade 3, node 9), m
        197   -4.540E+01                                 F               0         Y-component position of node 66 (blade 3, node 9), m
        198    1.206E+02                                 F               0         Z-component position of node 66 (blade 3, node 9), m
        199   -2.930E+00                                 F               0         X-component position of node 67 (blade 3, node 10), m
        200   -4.847E+01                                 F               0         Y-component position of node 67 (blade 3, node 10), m
        201    1.183E+02                                 F               0         Z-component position of node 67 (blade 3, node 10), m
        202   -3.191E+00                                 F               0         X-component position of node 68 (blade 3, node 11), m
        203   -5.154E+01                                 F               0         Y-component position of node 68 (blade 3, node 11), m
        204    1.159E+02                                 F               0         Z-component position of node 68 (blade 3, node 11), m
        205   -3.453E+00                                 F               0         X-component position of node 69 (blade 3, node 12), m
        206   -5.461E+01                                 F               0         Y-component position of node 69 (blade 3, node 12), m
        207    1.136E+02                                 F               0         Z-component position of node 69 (blade 3, node 12), m
        208   -3.715E+00                                 F               0         X-component position of node 70 (blade 3, node 13), m
        209   -5.768E+01                                 F               0         Y-component position of node 70 (blade 3, node 13), m
        210    1.113E+02                                 F               0         Z-component position of node 70 (blade 3, node 13), m
        211   -3.976E+00                                 F               0         X-component position of node 71 (blade 3, node 14), m