
Linearized model: Predictions were generated on 31-Jan-2024 at 12:35:17 using OpenFAST, compiled as a 64-bit application using single precision at commit v3.5.1
 linked with  NWTC Subroutine Library; ElastoDyn; InflowWind; AeroDyn; ServoDyn; HydroDyn; MAP++ (<1.20.10>, <Oct-20-2023>)

Description from the FAST input file: CCT-9 Campign 4 model. Input files to be run with OpenFAST 3.5.0. GitHub branch from Lu Wang (https://github.com/luwang00/openfast/tree/dev) compiled on March 7, 2023.

Simulation information:
   Simulation time:                   500.7500 s
   Rotor Speed:                         0.8935 rad/s
   Azimuth:                             1.4164 rad
   Wind Speed:                         10.0000 m/s
   Number of continuous states:        12
   Number of discrete states:           0
   Number of constraint states:         0
   Number of inputs:                 1890
   Number of outputs:                  19
   Jacobians included in this file?    No

Order of continuous states:
   Row/Column Operating Point                     Rotating Frame? Derivative Order Description
   ---------- ---------------                     --------------- ---------------- -----------
          1    8.173E+00                                 F               2         Platform horizontal surge translation DOF (internal DOF index = DOF_Sg), m
          2   -5.039E-02                                 F               2         Platform vertical heave translation DOF (internal DOF index = DOF_Hv), m
          3    7.092E-03                                 F               2         Platform yaw rotation DOF (internal DOF index = DOF_Y), rad
          4    3.856E-01                                 F               2         1st tower fore-aft bending mode DOF (internal DOF index = DOF_TFA1), m
          5    1.284E-03                                 F               2         2nd tower fore-aft bending mode DOF (internal DOF index = DOF_TFA2), m
          6    6.129E+00                                 F               2         Variable speed generator DOF (internal DOF index = DOF_GeAz), rad
          7   -7.773E-05                                 F               2         First time derivative of Platform horizontal surge translation DOF (internal DOF index = DOF_Sg), m/s
          8   -6.855E-04                                 F               2         First time derivative of Platform vertical heave translation DOF (internal DOF index = DOF_Hv), m/s
          9   -1.830E-06                                 F               2         First time derivative of Platform yaw rotation DOF (internal DOF index = DOF_Y), rad/s
         10   -1.931E-04                                 F               2         First time derivative of 1st tower fore-aft bending mode DOF (internal DOF index = DOF_TFA1), m/s
         11   -6.037E-07                                 F               2         First time derivative of 2nd tower fore-aft bending mode DOF (internal DOF index = DOF_TFA2), m/s
         12    8.935E-01                                 F               2         First time derivative of Variable speed generator DOF (internal DOF index = DOF_GeAz), rad/s

Order of continuous state derivatives:
   Row/Column Operating Point                     Rotating Frame? Derivative Order Description
   ---------- ---------------                     --------------- ---------------- -----------
          1   -7.773E-05                                 F               2         First time derivative of Platform horizontal surge translation DOF (internal DOF index = DOF_Sg), m/s
          2   -6.855E-04                                 F               2         First time derivative of Platform vertical heave translation DOF (internal DOF index = DOF_Hv), m/s
          3   -1.830E-06                                 F               2         First time derivative of Platform yaw rotation DOF (internal DOF index = DOF_Y), rad/s
          4   -1.931E-04                                 F               2         First time derivative of 1st tower fore-aft bending mode DOF (internal DOF index = DOF_TFA1), m/s
          5   -6.037E-07                                 F               2         First time derivative of 2nd tower fore-aft bending mode DOF (internal DOF index = DOF_TFA2), m/s
          6    8.935E-01                                 F               2         First time derivative of Variable speed generator DOF (internal DOF index = DOF_GeAz), rad/s
          7   -3.528E-04                                 F               2         First time derivative of First time derivative of Platform horizontal surge translation DOF (internal DOF index = DOF_Sg), m/s/s
          8   -2.288E-03                                 F               2         First time derivative of First time derivative of Platform vertical heave translation DOF (internal DOF index = DOF_Hv), m/s/s
          9    9.264E-07                                 F               2         First time derivative of First time derivative of Platform yaw rotation DOF (internal DOF index = DOF_Y), rad/s/s
         10   -5.231E-04                                 F               2         First time derivative of First time derivative of 1st tower fore-aft bending mode DOF (internal DOF index = DOF_TFA1), m/s/s
         11    2.903E-06                                 F               2         First time derivative of First time derivative of 2nd tower fore-aft bending mode DOF (internal DOF index = DOF_TFA2), m/s/s
         12    9.213E-05                                 F               2         First time derivative of First time derivative of Variable speed generator DOF (internal DOF index = DOF_GeAz), rad/s/s

Order of inputs:
     Column   Operating Point                     Rotating Frame? Derivative Order Description
   ---------- ---------------                     --------------- ---------------- -----------
          1    9.246E+01                                 F               0         Blade 1 X force, node 1, N
          2    1.360E+01                                 F               0         Blade 1 Y force, node 1, N
          3    1.012E+02                                 F               0         Blade 1 Z force, node 1, N
          4    3.546E+02                                 F               0         Blade 1 X force, node 2, N
          5    2.657E+01                                 F               0         Blade 1 Y force, node 2, N
          6    1.561E+02                                 F               0         Blade 1 Z force, node 2, N
          7    4.350E+02                                 F               0         Blade 1 X force, node 3, N
          8    2.040E+01                                 F               0         Blade 1 Y force, node 3, N
          9    8.096E+01                                 F               0         Blade 1 Z force, node 3, N
         10    5.535E+02                                 F               0         Blade 1 X force, node 4, N
         11    1.753E+01                                 F               0         Blade 1 Y force, node 4, N
         12    2.664E+01                                 F               0         Blade 1 Z force, node 4, N
         13    6.720E+02                                 F               0         Blade 1 X force, node 5, N
         14    1.466E+01                                 F               0         Blade 1 Y force, node 5, N
         15   -2.767E+01                                 F               0         Blade 1 Z force, node 5, N
         16    7.905E+02                                 F               0         Blade 1 X force, node 6, N
         17    1.180E+01                                 F               0         Blade 1 Y force, node 6, N
         18   -8.199E+01                                 F               0         Blade 1 Z force, node 6, N
         19    9.090E+02                                 F               0         Blade 1 X force, node 7, N
         20    8.930E+00                                 F               0         Blade 1 Y force, node 7, N
         21   -1.363E+02                                 F               0         Blade 1 Z force, node 7, N
         22    1.028E+03                                 F               0         Blade 1 X force, node 8, N
         23    6.062E+00                                 F               0         Blade 1 Y force, node 8, N
         24   -1.906E+02                                 F               0         Blade 1 Z force, node 8, N
         25    1.146E+03                                 F               0         Blade 1 X force, node 9, N
         26    3.195E+00                                 F               0         Blade 1 Y force, node 9, N
         27   -2.449E+02                                 F               0         Blade 1 Z force, node 9, N
         28    1.265E+03                                 F               0         Blade 1 X force, node 10, N
         29    3.273E-01                                 F               0         Blade 1 Y force, node 10, N
         30   -2.993E+02                                 F               0         Blade 1 Z force, node 10, N
         31    1.383E+03                                 F               0         Blade 1 X force, node 11, N
         32   -2.540E+00                                 F               0         Blade 1 Y force, node 11, N
         33   -3.536E+02                                 F               0         Blade 1 Z force, node 11, N
         34    1.502E+03                                 F               0         Blade 1 X force, node 12, N
         35   -5.408E+00                                 F               0         Blade 1 Y force, node 12, N
         36   -4.079E+02                                 F               0         Blade 1 Z force, node 12, N
         37    1.620E+03                                 F               0         Blade 1 X force, node 13, N
         38   -8.275E+00                                 F               0         Blade 1 Y force, node 13, N
         39   -4.622E+02                                 F               0         Blade 1 Z force, node 13, N
         40    1.739E+03                                 F               0         Blade 1 X force, node 14, N
         41   -1.114E+01                                 F               0         Blade 1 Y force, node 14, N
         42   -5.165E+02                                 F               0         Blade 1 Z force, node 14, N
         43    1.857E+03                                 F               0         Blade 1 X force, node 15, N
         44   -1.401E+01                                 F               0         Blade 1 Y force, node 15, N
         45   -5.708E+02                                 F               0         Blade 1 Z force, node 15, N
         46    1.976E+03                                 F               0         Blade 1 X force, node 16, N
         47   -1.688E+01                                 F               0         Blade 1 Y force, node 16, N
         48   -6.251E+02                                 F               0         Blade 1 Z force, node 16, N
         49    2.431E+03                                 F               0         Blade 1 X force, node 17, N
         50   -2.267E+01                                 F               0         Blade 1 Y force, node 17, N
         51   -7.865E+02                                 F               0         Blade 1 Z force, node 17, N
         52    1.875E+03                                 F               0         Blade 1 X force, node 18, N
         53   -1.617E+01                                 F               0         Blade 1 Y force, node 18, N
         54   -5.947E+02                                 F               0         Blade 1 Z force, node 18, N
         55    2.329E+03                                 F               0         Blade 1 X force, node 19, N
         56   -1.753E+01                                 F               0         Blade 1 Y force, node 19, N
         57   -7.155E+02                                 F               0         Blade 1 Z force, node 19, N
         58    2.008E+03                                 F               0         Blade 1 X force, node 20, N
         59   -1.313E+01                                 F               0         Blade 1 Y force, node 20, N
         60   -5.988E+02                                 F               0         Blade 1 Z force, node 20, N
         61    3.001E+03                                 F               0         Blade 1 X force, node 21, N
         62   -1.632E+01                                 F               0         Blade 1 Y force, node 21, N
         63   -8.652E+02                                 F               0         Blade 1 Z force, node 21, N
         64    2.679E+03                                 F               0         Blade 1 X force, node 22, N
         65   -1.171E+01                                 F               0         Blade 1 Y force, node 22, N
         66   -7.465E+02                                 F               0         Blade 1 Z force, node 22, N
         67    2.779E+03                                 F               0         Blade 1 X force, node 23, N
         68   -9.608E+00                                 F               0         Blade 1 Y force, node 23, N
         69   -7.513E+02                                 F               0         Blade 1 Z force, node 23, N
         70    2.929E+03                                 F               0         Blade 1 X force, node 24, N
         71   -7.624E+00                                 F               0         Blade 1 Y force, node 24, N
         72   -7.691E+02                                 F               0         Blade 1 Z force, node 24, N
         73    3.028E+03                                 F               0         Blade 1 X force, node 25, N
         74   -5.394E+00                                 F               0         Blade 1 Y force, node 25, N
         75   -7.725E+02                                 F               0         Blade 1 Z force, node 25, N
         76    3.142E+03                                 F               0         Blade 1 X force, node 26, N
         77   -3.188E+00                                 F               0         Blade 1 Y force, node 26, N
         78   -7.799E+02                                 F               0         Blade 1 Z force, node 26, N
         79    3.795E+03                                 F               0         Blade 1 X force, node 27, N
         80   -9.777E-01                                 F               0         Blade 1 Y force, node 27, N
         81   -9.160E+02                                 F               0         Blade 1 Z force, node 27, N
         82    2.834E+03                                 F               0         Blade 1 X force, node 28, N
         83    1.280E+00                                 F               0         Blade 1 Y force, node 28, N
         84   -6.658E+02                                 F               0         Blade 1 Z force, node 28, N
         85    3.487E+03                                 F               0         Blade 1 X force, node 29, N
         86    3.571E+00                                 F               0         Blade 1 Y force, node 29, N
         87   -8.011E+02                                 F               0         Blade 1 Z force, node 29, N
         88    2.983E+03                                 F               0         Blade 1 X force, node 30, N
         89    4.657E+00                                 F               0         Blade 1 Y force, node 30, N
         90   -6.708E+02                                 F               0         Blade 1 Z force, node 30, N
         91    4.336E+03                                 F               0         Blade 1 X force, node 31, N
         92    9.384E+00                                 F               0         Blade 1 Y force, node 31, N
         93   -9.513E+02                                 F               0         Blade 1 Z force, node 31, N
         94    3.831E+03                                 F               0         Blade 1 X force, node 32, N
         95    1.053E+01                                 F               0         Blade 1 Y force, node 32, N
         96   -8.202E+02                                 F               0         Blade 1 Z force, node 32, N
         97    3.945E+03                                 F               0         Blade 1 X force, node 33, N
         98    1.289E+01                                 F               0         Blade 1 Y force, node 33, N
         99   -8.260E+02                                 F               0         Blade 1 Z force, node 33, N
        100    4.060E+03                                 F               0         Blade 1 X force, node 34, N
        101    1.526E+01                                 F               0         Blade 1 Y force, node 34, N
        102   -8.319E+02                                 F               0         Blade 1 Z force, node 34, N
        103    4.174E+03                                 F               0         Blade 1 X force, node 35, N
        104    1.767E+01                                 F               0         Blade 1 Y force, node 35, N
        105   -8.374E+02                                 F               0         Blade 1 Z force, node 35, N
        106    4.287E+03                                 F               0         Blade 1 X force, node 36, N
        107    2.008E+01                                 F               0         Blade 1 Y force, node 36, N
        108   -8.426E+02                                 F               0         Blade 1 Z force, node 36, N
        109    5.150E+03                                 F               0         Blade 1 X force, node 37, N
        110    2.646E+01                                 F               0         Blade 1 Y force, node 37, N
        111   -9.910E+02                                 F               0         Blade 1 Z force, node 37, N
        112    3.765E+03                                 F               0         Blade 1 X force, node 38, N
        113    2.095E+01                                 F               0         Blade 1 Y force, node 38, N
        114   -7.100E+02                                 F               0         Blade 1 Z force, node 38, N
        115    4.629E+03                                 F               0         Blade 1 X force, node 39, N
        116    2.737E+01                                 F               0         Blade 1 Y force, node 39, N
        117   -8.583E+02                                 F               0         Blade 1 Z force, node 39, N
        118    3.959E+03                                 F               0         Blade 1 X force, node 40, N
        119    2.473E+01                                 F               0         Blade 1 Y force, node 40, N
        120   -7.221E+02                                 F               0         Blade 1 Z force, node 40, N
        121    5.642E+03                                 F               0         Blade 1 X force, node 41, N
        122    3.736E+01                                 F               0         Blade 1 Y force, node 41, N
        123   -1.010E+03                                 F               0         Blade 1 Z force, node 41, N
        124    4.970E+03                                 F               0         Blade 1 X force, node 42, N
        125    3.475E+01                                 F               0         Blade 1 Y force, node 42, N
        126   -8.728E+02                                 F               0         Blade 1 Z force, node 42, N
        127    5.082E+03                                 F               0         Blade 1 X force, node 43, N
        128    3.722E+01                                 F               0         Blade 1 Y force, node 43, N
        129   -8.772E+02                                 F               0         Blade 1 Z force, node 43, N
        130    5.222E+03                                 F               0         Blade 1 X force, node 44, N
        131    3.992E+01                                 F               0         Blade 1 Y force, node 44, N
        132   -8.862E+02                                 F               0         Blade 1 Z force, node 44, N
        133    5.279E+03                                 F               0         Blade 1 X force, node 45, N
        134    4.199E+01                                 F               0         Blade 1 Y force, node 45, N
        135   -8.811E+02                                 F               0         Blade 1 Z force, node 45, N
        136    5.419E+03                                 F               0         Blade 1 X force, node 46, N
        137    4.470E+01                                 F               0         Blade 1 Y force, node 46, N
        138   -8.900E+02                                 F               0         Blade 1 Z force, node 46, N
        139    6.503E+03                                 F               0         Blade 1 X force, node 47, N
        140    5.561E+01                                 F               0         Blade 1 Y force, node 47, N
        141   -1.050E+03                                 F               0         Blade 1 Z force, node 47, N
        142    4.672E+03                                 F               0         Blade 1 X force, node 48, N
        143    4.130E+01                                 F               0         Blade 1 Y force, node 48, N
        144   -7.422E+02                                 F               0         Blade 1 Z force, node 48, N
        145    5.755E+03                                 F               0         Blade 1 X force, node 49, N
        146    5.222E+01                                 F               0         Blade 1 Y force, node 49, N
        147   -9.020E+02                                 F               0         Blade 1 Z force, node 49, N
        148    4.932E+03                                 F               0         Blade 1 X force, node 50, N
        149    4.589E+01                                 F               0         Blade 1 Y force, node 50, N
        150   -7.628E+02                                 F               0         Blade 1 Z force, node 50, N
        151    6.912E+03                                 F               0         Blade 1 X force, node 51, N
        152    6.610E+01                                 F               0         Blade 1 Y force, node 51, N
        153   -1.053E+03                                 F               0         Blade 1 Z force, node 51, N
        154    6.091E+03                                 F               0         Blade 1 X force, node 52, N
        155    5.978E+01                                 F               0         Blade 1 Y force, node 52, N
        156   -9.138E+02                                 F               0         Blade 1 Z force, node 52, N
        157    6.204E+03                                 F               0         Blade 1 X force, node 53, N
        158    6.231E+01                                 F               0         Blade 1 Y force, node 53, N
        159   -9.179E+02                                 F               0         Blade 1 Z force, node 53, N
        160    6.386E+03                                 F               0         Blade 1 X force, node 54, N
        161    6.556E+01                                 F               0         Blade 1 Y force, node 54, N
        162   -9.320E+02                                 F               0         Blade 1 Z force, node 54, N
        163    6.359E+03                                 F               0         Blade 1 X force, node 55, N
        164    6.666E+01                                 F               0         Blade 1 Y force, node 55, N
        165   -9.156E+02                                 F               0         Blade 1 Z force, node 55, N
        166    6.541E+03                                 F               0         Blade 1 X force, node 56, N
        167    6.992E+01                                 F               0         Blade 1 Y force, node 56, N
        168   -9.295E+02                                 F               0         Blade 1 Z force, node 56, N
        169    7.858E+03                                 F               0         Blade 1 X force, node 57, N
        170    8.569E+01                                 F               0         Blade 1 Y force, node 57, N
        171   -1.101E+03                                 F               0         Blade 1 Z force, node 57, N
        172    5.560E+03                                 F               0         Blade 1 X force, node 58, N
        173    6.177E+01                                 F               0         Blade 1 Y force, node 58, N
        174   -7.690E+02                                 F               0         Blade 1 Z force, node 58, N
        175    6.877E+03                                 F               0         Blade 1 X force, node 59, N
        176    7.756E+01                                 F               0         Blade 1 Y force, node 59, N
        177   -9.407E+02                                 F               0         Blade 1 Z force, node 59, N
        178    5.919E+03                                 F               0         Blade 1 X force, node 60, N
        179    6.773E+01                                 F               0         Blade 1 Y force, node 60, N
        180   -8.007E+02                                 F               0         Blade 1 Z force, node 60, N
        181    8.172E+03                                 F               0         Blade 1 X force, node 61, N
        182    9.504E+01                                 F               0         Blade 1 Y force, node 61, N
        183   -1.091E+03                                 F               0         Blade 1 Z force, node 61, N
        184    7.210E+03                                 F               0         Blade 1 X force, node 62, N
        185    8.520E+01                                 F               0         Blade 1 Y force, node 62, N
        186   -9.509E+02                                 F               0         Blade 1 Z force, node 62, N
        187    7.320E+03                                 F               0         Blade 1 X force, node 63, N
        188    8.775E+01                                 F               0         Blade 1 Y force, node 63, N
        189   -9.541E+02                                 F               0         Blade 1 Z force, node 63, N
        190    7.555E+03                                 F               0         Blade 1 X force, node 64, N
        191    9.182E+01                                 F               0         Blade 1 Y force, node 64, N
        192   -9.732E+02                                 F               0         Blade 1 Z force, node 64, N
        193    7.419E+03                                 F               0         Blade 1 X force, node 65, N
        194    9.135E+01                                 F               0         Blade 1 Y force, node 65, N
        195   -9.449E+02                                 F               0         Blade 1 Z force, node 65, N
        196    7.656E+03                                 F               0         Blade 1 X force, node 66, N
        197    9.544E+01                                 F               0         Blade 1 Y force, node 66, N
        198   -9.647E+02                                 F               0         Blade 1 Z force, node 66, N
        199    9.217E+03                                 F               0         Blade 1 X force, node 67, N
        200    1.164E+02                                 F               0         Blade 1 Y force, node 67, N
        201   -1.148E+03                                 F               0         Blade 1 Z force, node 67, N
        202    6.434E+03                                 F               0         Blade 1 X force, node 68, N
        203    8.222E+01                                 F               0         Blade 1 Y force, node 68, N
        204   -7.923E+02                                 F               0         Blade 1 Z force, node 68, N
        205    7.993E+03                                 F               0         Blade 1 X force, node 69, N
        206    1.032E+02                                 F               0         Blade 1 Y force, node 69, N
        207   -9.751E+02                                 F               0         Blade 1 Z force, node 69, N
        208    6.911E+03                                 F               0         Blade 1 X force, node 70, N
        209    9.007E+01                                 F               0         Blade 1 Y force, node 70, N
        210   -8.351E+02                                 F               0         Blade 1 Z force, node 70, N
        211    9.407E+03                                 F               0         Blade 1 X force, node 71, N
        212    1.240E+02                                 F               0         Blade 1 Y force, node 71, N
        213   -1.124E+03                                 F               0         Blade 1 Z force, node 71, N
        214    8.321E+03                                 F               0         Blade 1 X force, node 72, N
        215    1.109E+02                                 F               0         Blade 1 Y force, node 72, N
        216   -9.836E+02                                 F               0         Blade 1 Z force, node 72, N
        217    8.428E+03                                 F               0         Blade 1 X force, node 73, N