
Linearized model: Predictions were generated on 06-Feb-2024 at 16:18:08 using OpenFAST, compiled as a 64-bit application using single precision at commit v3.5.1
 linked with  NWTC Subroutine Library; ElastoDyn; InflowWind; AeroDyn; ServoDyn; HydroDyn; MAP++ (<1.20.10>, <Oct-20-2023>)

Description from the FAST input file: CCT-9 Campign 4 model. Input files to be run with OpenFAST 3.5.0. GitHub branch from Lu Wang (https://github.com/luwang00/openfast/tree/dev) compiled on March 7, 2023.

Simulation information:
   Simulation time:                  1008.4500 s
   Rotor Speed:                         1.0421 rad/s
   Azimuth:                             4.0219 rad
   Wind Speed:                         12.0000 m/s
   Number of continuous states:         0
   Number of discrete states:           0
   Number of constraint states:         0
   Number of inputs:                  303
   Number of outputs:                   1
   Jacobians included in this file?    No

Order of inputs:
     Column   Operating Point                     Rotating Frame? Derivative Order Description
   ---------- ---------------                     --------------- ---------------- -----------
          1   -1.080E+01                                 F               0         X-component position of node 1 (hub), m
          2    0.000E+00                                 F               0         Y-component position of node 1 (hub), m
          3    1.497E+02                                 F               0         Z-component position of node 1 (hub), m
          4    2.494E+01                                 F               0         X-component position of node 2 (blade 1, node 1), m
          5   -3.309E+00                                 F               0         Y-component position of node 2 (blade 1, node 1), m
          6    1.460E+02                                 F               0         Z-component position of node 2 (blade 1, node 1), m
          7    2.472E+01                                 F               0         X-component position of node 3 (blade 1, node 2), m
          8   -2.239E+00                                 F               0         Y-component position of node 3 (blade 1, node 2), m
          9    1.452E+02                                 F               0         Z-component position of node 3 (blade 1, node 2), m
         10    2.178E+01                                 F               0         X-component position of node 4 (blade 1, node 3), m
         11    1.231E+01                                 F               0         Y-component position of node 4 (blade 1, node 3), m
         12    1.347E+02                                 F               0         Z-component position of node 4 (blade 1, node 3), m
         13    2.115E+01                                 F               0         X-component position of node 5 (blade 1, node 4), m
         14    1.541E+01                                 F               0         Y-component position of node 5 (blade 1, node 4), m
         15    1.325E+02                                 F               0         Z-component position of node 5 (blade 1, node 4), m
         16    2.052E+01                                 F               0         X-component position of node 6 (blade 1, node 5), m
         17    1.850E+01                                 F               0         Y-component position of node 6 (blade 1, node 5), m
         18    1.303E+02                                 F               0         Z-component position of node 6 (blade 1, node 5), m
         19    1.989E+01                                 F               0         X-component position of node 7 (blade 1, node 6), m
         20    2.160E+01                                 F               0         Y-component position of node 7 (blade 1, node 6), m
         21    1.281E+02                                 F               0         Z-component position of node 7 (blade 1, node 6), m
         22    1.926E+01                                 F               0         X-component position of node 8 (blade 1, node 7), m
         23    2.470E+01                                 F               0         Y-component position of node 8 (blade 1, node 7), m
         24    1.258E+02                                 F               0         Z-component position of node 8 (blade 1, node 7), m
         25    1.863E+01                                 F               0         X-component position of node 9 (blade 1, node 8), m
         26    2.780E+01                                 F               0         Y-component position of node 9 (blade 1, node 8), m
         27    1.236E+02                                 F               0         Z-component position of node 9 (blade 1, node 8), m
         28    1.801E+01                                 F               0         X-component position of node 10 (blade 1, node 9), m
         29    3.090E+01                                 F               0         Y-component position of node 10 (blade 1, node 9), m
         30    1.214E+02                                 F               0         Z-component position of node 10 (blade 1, node 9), m
         31    1.738E+01                                 F               0         X-component position of node 11 (blade 1, node 10), m
         32    3.400E+01                                 F               0         Y-component position of node 11 (blade 1, node 10), m
         33    1.192E+02                                 F               0         Z-component position of node 11 (blade 1, node 10), m
         34    1.675E+01                                 F               0         X-component position of node 12 (blade 1, node 11), m
         35    3.710E+01                                 F               0         Y-component position of node 12 (blade 1, node 11), m
         36    1.169E+02                                 F               0         Z-component position of node 12 (blade 1, node 11), m
         37    1.612E+01                                 F               0         X-component position of node 13 (blade 1, node 12), m
         38    4.020E+01                                 F               0         Y-component position of node 13 (blade 1, node 12), m
         39    1.147E+02                                 F               0         Z-component position of node 13 (blade 1, node 12), m
         40    1.549E+01                                 F               0         X-component position of node 14 (blade 1, node 13), m
         41    4.330E+01                                 F               0         Y-component position of node 14 (blade 1, node 13), m
         42    1.125E+02                                 F               0         Z-component position of node 14 (blade 1, node 13), m
         43    1.486E+01                                 F               0         X-component position of node 15 (blade 1, node 14), m
         44    4.640E+01                                 F               0         Y-component position of node 15 (blade 1, node 14), m
         45    1.103E+02                                 F               0         Z-component position of node 15 (blade 1, node 14), m
         46    1.423E+01                                 F               0         X-component position of node 16 (blade 1, node 15), m
         47    4.950E+01                                 F               0         Y-component position of node 16 (blade 1, node 15), m
         48    1.080E+02                                 F               0         Z-component position of node 16 (blade 1, node 15), m
         49    1.361E+01                                 F               0         X-component position of node 17 (blade 1, node 16), m
         50    5.260E+01                                 F               0         Y-component position of node 17 (blade 1, node 16), m
         51    1.058E+02                                 F               0         Z-component position of node 17 (blade 1, node 16), m
         52    1.298E+01                                 F               0         X-component position of node 18 (blade 1, node 17), m
         53    5.569E+01                                 F               0         Y-component position of node 18 (blade 1, node 17), m
         54    1.036E+02                                 F               0         Z-component position of node 18 (blade 1, node 17), m
         55    1.235E+01                                 F               0         X-component position of node 19 (blade 1, node 18), m
         56    5.879E+01                                 F               0         Y-component position of node 19 (blade 1, node 18), m
         57    1.013E+02                                 F               0         Z-component position of node 19 (blade 1, node 18), m
         58    1.172E+01                                 F               0         X-component position of node 20 (blade 1, node 19), m
         59    6.189E+01                                 F               0         Y-component position of node 20 (blade 1, node 19), m
         60    9.912E+01                                 F               0         Z-component position of node 20 (blade 1, node 19), m
         61    1.109E+01                                 F               0         X-component position of node 21 (blade 1, node 20), m
         62    6.499E+01                                 F               0         Y-component position of node 21 (blade 1, node 20), m
         63    9.689E+01                                 F               0         Z-component position of node 21 (blade 1, node 20), m
         64    1.046E+01                                 F               0         X-component position of node 22 (blade 1, node 21), m
         65    6.809E+01                                 F               0         Y-component position of node 22 (blade 1, node 21), m
         66    9.466E+01                                 F               0         Z-component position of node 22 (blade 1, node 21), m
         67    9.836E+00                                 F               0         X-component position of node 23 (blade 1, node 22), m
         68    7.119E+01                                 F               0         Y-component position of node 23 (blade 1, node 22), m
         69    9.244E+01                                 F               0         Z-component position of node 23 (blade 1, node 22), m
         70    9.208E+00                                 F               0         X-component position of node 24 (blade 1, node 23), m
         71    7.429E+01                                 F               0         Y-component position of node 24 (blade 1, node 23), m
         72    9.021E+01                                 F               0         Z-component position of node 24 (blade 1, node 23), m
         73    8.580E+00                                 F               0         X-component position of node 25 (blade 1, node 24), m
         74    7.739E+01                                 F               0         Y-component position of node 25 (blade 1, node 24), m
         75    8.798E+01                                 F               0         Z-component position of node 25 (blade 1, node 24), m
         76    7.951E+00                                 F               0         X-component position of node 26 (blade 1, node 25), m
         77    8.049E+01                                 F               0         Y-component position of node 26 (blade 1, node 25), m
         78    8.576E+01                                 F               0         Z-component position of node 26 (blade 1, node 25), m
         79    7.323E+00                                 F               0         X-component position of node 27 (blade 1, node 26), m
         80    8.359E+01                                 F               0         Y-component position of node 27 (blade 1, node 26), m
         81    8.353E+01                                 F               0         Z-component position of node 27 (blade 1, node 26), m
         82    6.695E+00                                 F               0         X-component position of node 28 (blade 1, node 27), m
         83    8.669E+01                                 F               0         Y-component position of node 28 (blade 1, node 27), m
         84    8.130E+01                                 F               0         Z-component position of node 28 (blade 1, node 27), m
         85    6.162E+00                                 F               0         X-component position of node 29 (blade 1, node 28), m
         86    8.931E+01                                 F               0         Y-component position of node 29 (blade 1, node 28), m
         87    7.941E+01                                 F               0         Z-component position of node 29 (blade 1, node 28), m
         88    2.732E+01                                 F               0         X-component position of node 30 (blade 2, node 1), m
         89   -7.098E+00                                 F               0         Y-component position of node 30 (blade 2, node 1), m
         90    1.545E+02                                 F               0         Z-component position of node 30 (blade 2, node 1), m
         91    2.767E+01                                 F               0         X-component position of node 31 (blade 2, node 2), m
         92   -6.941E+00                                 F               0         Y-component position of node 31 (blade 2, node 2), m
         93    1.557E+02                                 F               0         Z-component position of node 31 (blade 2, node 2), m
         94    3.251E+01                                 F               0         X-component position of node 32 (blade 2, node 3), m
         95   -4.809E+00                                 F               0         Y-component position of node 32 (blade 2, node 3), m
         96    1.731E+02                                 F               0         Z-component position of node 32 (blade 2, node 3), m
         97    3.354E+01                                 F               0         X-component position of node 33 (blade 2, node 4), m
         98   -4.354E+00                                 F               0         Y-component position of node 33 (blade 2, node 4), m
         99    1.768E+02                                 F               0         Z-component position of node 33 (blade 2, node 4), m
        100    3.458E+01                                 F               0         X-component position of node 34 (blade 2, node 5), m
        101   -3.900E+00                                 F               0         Y-component position of node 34 (blade 2, node 5), m
        102    1.805E+02                                 F               0         Z-component position of node 34 (blade 2, node 5), m
        103    3.561E+01                                 F               0         X-component position of node 35 (blade 2, node 6), m
        104   -3.446E+00                                 F               0         Y-component position of node 35 (blade 2, node 6), m
        105    1.842E+02                                 F               0         Z-component position of node 35 (blade 2, node 6), m
        106    3.664E+01                                 F               0         X-component position of node 36 (blade 2, node 7), m
        107   -2.991E+00                                 F               0         Y-component position of node 36 (blade 2, node 7), m
        108    1.879E+02                                 F               0         Z-component position of node 36 (blade 2, node 7), m
        109    3.767E+01                                 F               0         X-component position of node 37 (blade 2, node 8), m
        110   -2.537E+00                                 F               0         Y-component position of node 37 (blade 2, node 8), m
        111    1.916E+02                                 F               0         Z-component position of node 37 (blade 2, node 8), m
        112    3.870E+01                                 F               0         X-component position of node 38 (blade 2, node 9), m
        113   -2.083E+00                                 F               0         Y-component position of node 38 (blade 2, node 9), m
        114    1.953E+02                                 F               0         Z-component position of node 38 (blade 2, node 9), m
        115    3.973E+01                                 F               0         X-component position of node 39 (blade 2, node 10), m
        116   -1.629E+00                                 F               0         Y-component position of node 39 (blade 2, node 10), m
        117    1.990E+02                                 F               0         Z-component position of node 39 (blade 2, node 10), m
        118    4.076E+01                                 F               0         X-component position of node 40 (blade 2, node 11), m
        119   -1.174E+00                                 F               0         Y-component position of node 40 (blade 2, node 11), m
        120    2.027E+02                                 F               0         Z-component position of node 40 (blade 2, node 11), m
        121    4.179E+01                                 F               0         X-component position of node 41 (blade 2, node 12), m
        122   -7.200E-01                                 F               0         Y-component position of node 41 (blade 2, node 12), m
        123    2.064E+02                                 F               0         Z-component position of node 41 (blade 2, node 12), m
        124    4.282E+01                                 F               0         X-component position of node 42 (blade 2, node 13), m
        125   -2.657E-01                                 F               0         Y-component position of node 42 (blade 2, node 13), m
        126    2.101E+02                                 F               0         Z-component position of node 42 (blade 2, node 13), m
        127    4.385E+01                                 F               0         X-component position of node 43 (blade 2, node 14), m
        128    1.885E-01                                 F               0         Y-component position of node 43 (blade 2, node 14), m
        129    2.138E+02                                 F               0         Z-component position of node 43 (blade 2, node 14), m
        130    4.489E+01                                 F               0         X-component position of node 44 (blade 2, node 15), m
        131    6.429E-01                                 F               0         Y-component position of node 44 (blade 2, node 15), m
        132    2.175E+02                                 F               0         Z-component position of node 44 (blade 2, node 15), m
        133    4.592E+01                                 F               0         X-component position of node 45 (blade 2, node 16), m
        134    1.097E+00                                 F               0         Y-component position of node 45 (blade 2, node 16), m
        135    2.212E+02                                 F               0         Z-component position of node 45 (blade 2, node 16), m
        136    4.695E+01                                 F               0         X-component position of node 46 (blade 2, node 17), m
        137    1.551E+00                                 F               0         Y-component position of node 46 (blade 2, node 17), m
        138    2.249E+02                                 F               0         Z-component position of node 46 (blade 2, node 17), m
        139    4.798E+01                                 F               0         X-component position of node 47 (blade 2, node 18), m
        140    2.006E+00                                 F               0         Y-component position of node 47 (blade 2, node 18), m
        141    2.286E+02                                 F               0         Z-component position of node 47 (blade 2, node 18), m
        142    4.901E+01                                 F               0         X-component position of node 48 (blade 2, node 19), m
        143    2.460E+00                                 F               0         Y-component position of node 48 (blade 2, node 19), m
        144    2.323E+02                                 F               0         Z-component position of node 48 (blade 2, node 19), m
        145    5.004E+01                                 F               0         X-component position of node 49 (blade 2, node 20), m
        146    2.914E+00                                 F               0         Y-component position of node 49 (blade 2, node 20), m
        147    2.360E+02                                 F               0         Z-component position of node 49 (blade 2, node 20), m
        148    5.107E+01                                 F               0         X-component position of node 50 (blade 2, node 21), m
        149    3.369E+00                                 F               0         Y-component position of node 50 (blade 2, node 21), m
        150    2.397E+02                                 F               0         Z-component position of node 50 (blade 2, node 21), m
        151    5.210E+01                                 F               0         X-component position of node 51 (blade 2, node 22), m
        152    3.823E+00                                 F               0         Y-component position of node 51 (blade 2, node 22), m
        153    2.434E+02                                 F               0         Z-component position of node 51 (blade 2, node 22), m
        154    5.313E+01                                 F               0         X-component position of node 52 (blade 2, node 23), m
        155    4.277E+00                                 F               0         Y-component position of node 52 (blade 2, node 23), m
        156    2.471E+02                                 F               0         Z-component position of node 52 (blade 2, node 23), m
        157    5.417E+01                                 F               0         X-component position of node 53 (blade 2, node 24), m
        158    4.731E+00                                 F               0         Y-component position of node 53 (blade 2, node 24), m
        159    2.508E+02                                 F               0         Z-component position of node 53 (blade 2, node 24), m
        160    5.520E+01                                 F               0         X-component position of node 54 (blade 2, node 25), m
        161    5.186E+00                                 F               0         Y-component position of node 54 (blade 2, node 25), m
        162    2.545E+02                                 F               0         Z-component position of node 54 (blade 2, node 25), m
        163    5.623E+01                                 F               0         X-component position of node 55 (blade 2, node 26), m
        164    5.640E+00                                 F               0         Y-component position of node 55 (blade 2, node 26), m
        165    2.582E+02                                 F               0         Z-component position of node 55 (blade 2, node 26), m
        166    5.726E+01                                 F               0         X-component position of node 56 (blade 2, node 27), m
        167    6.094E+00                                 F               0         Y-component position of node 56 (blade 2, node 27), m
        168    2.619E+02                                 F               0         Z-component position of node 56 (blade 2, node 27), m
        169    5.813E+01                                 F               0         X-component position of node 57 (blade 2, node 28), m
        170    6.479E+00                                 F               0         Y-component position of node 57 (blade 2, node 28), m
        171    2.650E+02                                 F               0         Z-component position of node 57 (blade 2, node 28), m
        172    2.526E+01                                 F               0         X-component position of node 58 (blade 3, node 1), m
        173   -1.284E+01                                 F               0         Y-component position of node 58 (blade 3, node 1), m
        174    1.470E+02                                 F               0         Z-component position of node 58 (blade 3, node 1), m
        175    2.513E+01                                 F               0         X-component position of node 59 (blade 3, node 2), m
        176   -1.406E+01                                 F               0         Y-component position of node 59 (blade 3, node 2), m
        177    1.465E+02                                 F               0         Z-component position of node 59 (blade 3, node 2), m
        178    2.324E+01                                 F               0         X-component position of node 60 (blade 3, node 3), m
        179   -3.074E+01                                 F               0         Y-component position of node 60 (blade 3, node 3), m
        180    1.396E+02                                 F               0         Z-component position of node 60 (blade 3, node 3), m
        181    2.283E+01                                 F               0         X-component position of node 61 (blade 3, node 4), m
        182   -3.430E+01                                 F               0         Y-component position of node 61 (blade 3, node 4), m
        183    1.382E+02                                 F               0         Z-component position of node 61 (blade 3, node 4), m
        184    2.243E+01                                 F               0         X-component position of node 62 (blade 3, node 5), m
        185   -3.785E+01                                 F               0         Y-component position of node 62 (blade 3, node 5), m
        186    1.367E+02                                 F               0         Z-component position of node 62 (blade 3, node 5), m
        187    2.203E+01                                 F               0         X-component position of node 63 (blade 3, node 6), m
        188   -4.140E+01                                 F               0         Y-component position of node 63 (blade 3, node 6), m
        189    1.352E+02                                 F               0         Z-component position of node 63 (blade 3, node 6), m
        190    2.163E+01                                 F               0         X-component position of node 64 (blade 3, node 7), m
        191   -4.496E+01                                 F               0         Y-component position of node 64 (blade 3, node 7), m
        192    1.337E+02                                 F               0         Z-component position of node 64 (blade 3, node 7), m
        193    2.122E+01                                 F               0         X-component position of node 65 (blade 3, node 8), m
        194   -4.851E+01                                 F               0         Y-component position of node 65 (blade 3, node 8), m
        195    1.323E+02                                 F               0         Z-component position of node 65 (blade 3, node 8), m
        196    2.082E+01                                 F               0         X-component position of node 66 (blade 3, node 9), m
        197   -5.206E+01                                 F               0         Y-component position of node 66 (blade 3, node 9), m
        198    1.308E+02                                 F               0         Z-component position of node 66 (blade 3, node 9), m
        199    2.042E+01                                 F               0         X-component position of node 67 (blade 3, node 10), m
        200   -5.562E+01                                 F               0         Y-component position of node 67 (blade 3, node 10), m
        201    1.293E+02                                 F               0         Z-component position of node 67 (blade 3, node 10), m
        202    2.001E+01                                 F               0         X-component position of node 68 (blade 3, node 11), m
        203   -5.917E+01                                 F               0         Y-component position of node 68 (blade 3, node 11), m
        204    1.278E+02                                 F               0         Z-component position of node 68 (blade 3, node 11), m
        205    1.961E+01                                 F               0         X-component position of node 69 (blade 3, node 12), m
        206   -6.272E+01                                 F               0         Y-component position of node 69 (blade 3, node 12), m
        207    1.264E+02                                 F               0         Z-component position of node 69 (blade 3, node 12), m
        208    1.921E+01                                 F               0         X-component position of node 70 (blade 3, node 13), m
        209   -6.628E+01                                 F               0         Y-component position of node 70 (blade 3, node 13), m
        210    1.249E+02                                 F               0         Z-component position of node 70 (blade 3, node 13), m
        211    1.881E+01                                 F               0         X-component position of node 71 (blade 3, node 14), m