
Linearized model: Predictions were generated on 06-Feb-2024 at 16:18:08 using OpenFAST, compiled as a 64-bit application using single precision at commit v3.5.1
 linked with  NWTC Subroutine Library; ElastoDyn; InflowWind; AeroDyn; ServoDyn; HydroDyn; MAP++ (<1.20.10>, <Oct-20-2023>)

Description from the FAST input file: CCT-9 Campign 4 model. Input files to be run with OpenFAST 3.5.0. GitHub branch from Lu Wang (https://github.com/luwang00/openfast/tree/dev) compiled on March 7, 2023.

Simulation information:
   Simulation time:                  1007.7000 s
   Rotor Speed:                         1.0421 rad/s
   Azimuth:                             3.2404 rad
   Wind Speed:                         12.0000 m/s
   Number of continuous states:         0
   Number of discrete states:           0
   Number of constraint states:         0
   Number of inputs:                 1746
   Number of outputs:                   4
   Jacobians included in this file?    No

Order of inputs:
     Column   Operating Point                     Rotating Frame? Derivative Order Description
   ---------- ---------------                     --------------- ---------------- -----------
          1    1.513E+01                                 F               0         Tower X translation displacement, node 1, m
          2   -1.423E+00                                 F               0         Tower Y translation displacement, node 1, m
          3   -4.807E-01                                 F               0         Tower Z translation displacement, node 1, m
          4    1.704E+01                                 F               0         Tower X translation displacement, node 2, m
          5   -2.004E+00                                 F               0         Tower Y translation displacement, node 2, m
          6   -6.434E-01                                 F               0         Tower Z translation displacement, node 2, m
          7    1.899E+01                                 F               0         Tower X translation displacement, node 3, m
          8   -2.591E+00                                 F               0         Tower Y translation displacement, node 3, m
          9   -8.118E-01                                 F               0         Tower Z translation displacement, node 3, m
         10    2.096E+01                                 F               0         Tower X translation displacement, node 4, m
         11   -3.182E+00                                 F               0         Tower Y translation displacement, node 4, m
         12   -9.846E-01                                 F               0         Tower Z translation displacement, node 4, m
         13    2.296E+01                                 F               0         Tower X translation displacement, node 5, m
         14   -3.776E+00                                 F               0         Tower Y translation displacement, node 5, m
         15   -1.161E+00                                 F               0         Tower Z translation displacement, node 5, m
         16    2.497E+01                                 F               0         Tower X translation displacement, node 6, m
         17   -4.374E+00                                 F               0         Tower Y translation displacement, node 6, m
         18   -1.341E+00                                 F               0         Tower Z translation displacement, node 6, m
         19    2.700E+01                                 F               0         Tower X translation displacement, node 7, m
         20   -4.974E+00                                 F               0         Tower Y translation displacement, node 7, m
         21   -1.523E+00                                 F               0         Tower Z translation displacement, node 7, m
         22    2.903E+01                                 F               0         Tower X translation displacement, node 8, m
         23   -5.577E+00                                 F               0         Tower Y translation displacement, node 8, m
         24   -1.707E+00                                 F               0         Tower Z translation displacement, node 8, m
         25    3.108E+01                                 F               0         Tower X translation displacement, node 9, m
         26   -6.181E+00                                 F               0         Tower Y translation displacement, node 9, m
         27   -1.892E+00                                 F               0         Tower Z translation displacement, node 9, m
         28    3.313E+01                                 F               0         Tower X translation displacement, node 10, m
         29   -6.786E+00                                 F               0         Tower Y translation displacement, node 10, m
         30   -2.079E+00                                 F               0         Tower Z translation displacement, node 10, m
         31    3.518E+01                                 F               0         Tower X translation displacement, node 11, m
         32   -7.392E+00                                 F               0         Tower Y translation displacement, node 11, m
         33   -2.266E+00                                 F               0         Tower Z translation displacement, node 11, m
         34    9.881E-01, -3.535E-03, -1.540E-01         F               0         Tower X orientation angle, node 1, rad
         35    1.070E-02,  9.989E-01,  4.575E-02         F               0         Tower Y orientation angle, node 1, rad
         36    1.537E-01, -4.685E-02,  9.870E-01         F               0         Tower Z orientation angle, node 1, rad
         37    9.877E-01, -3.411E-03, -1.566E-01         F               0         Tower X orientation angle, node 2, rad
         38    1.077E-02,  9.989E-01,  4.615E-02         F               0         Tower Y orientation angle, node 2, rad
         39    1.563E-01, -4.727E-02,  9.866E-01         F               0         Tower Z orientation angle, node 2, rad
         40    9.873E-01, -3.301E-03, -1.589E-01         F               0         Tower X orientation angle, node 3, rad
         41    1.083E-02,  9.989E-01,  4.652E-02         F               0         Tower Y orientation angle, node 3, rad
         42    1.586E-01, -4.765E-02,  9.862E-01         F               0         Tower Z orientation angle, node 3, rad
         43    9.870E-01, -3.206E-03, -1.609E-01         F               0         Tower X orientation angle, node 4, rad
         44    1.088E-02,  9.988E-01,  4.684E-02         F               0         Tower Y orientation angle, node 4, rad
         45    1.605E-01, -4.798E-02,  9.859E-01         F               0         Tower Z orientation angle, node 4, rad
         46    9.867E-01, -3.126E-03, -1.625E-01         F               0         Tower X orientation angle, node 5, rad
         47    1.092E-02,  9.988E-01,  4.711E-02         F               0         Tower Y orientation angle, node 5, rad
         48    1.621E-01, -4.826E-02,  9.856E-01         F               0         Tower Z orientation angle, node 5, rad
         49    9.865E-01, -3.061E-03, -1.638E-01         F               0         Tower X orientation angle, node 6, rad
         50    1.096E-02,  9.988E-01,  4.734E-02         F               0         Tower Y orientation angle, node 6, rad
         51    1.635E-01, -4.850E-02,  9.854E-01         F               0         Tower Z orientation angle, node 6, rad
         52    9.863E-01, -3.011E-03, -1.648E-01         F               0         Tower X orientation angle, node 7, rad
         53    1.099E-02,  9.988E-01,  4.752E-02         F               0         Tower Y orientation angle, node 7, rad
         54    1.645E-01, -4.868E-02,  9.852E-01         F               0         Tower Z orientation angle, node 7, rad
         55    9.862E-01, -2.973E-03, -1.656E-01         F               0         Tower X orientation angle, node 8, rad
         56    1.101E-02,  9.988E-01,  4.767E-02         F               0         Tower Y orientation angle, node 8, rad
         57    1.653E-01, -4.883E-02,  9.850E-01         F               0         Tower Z orientation angle, node 8, rad
         58    9.861E-01, -2.946E-03, -1.661E-01         F               0         Tower X orientation angle, node 9, rad
         59    1.103E-02,  9.988E-01,  4.777E-02         F               0         Tower Y orientation angle, node 9, rad
         60    1.658E-01, -4.894E-02,  9.849E-01         F               0         Tower Z orientation angle, node 9, rad
         61    9.860E-01, -2.929E-03, -1.665E-01         F               0         Tower X orientation angle, node 10, rad
         62    1.104E-02,  9.988E-01,  4.784E-02         F               0         Tower Y orientation angle, node 10, rad
         63    1.661E-01, -4.901E-02,  9.849E-01         F               0         Tower Z orientation angle, node 10, rad
         64    9.860E-01, -2.920E-03, -1.667E-01         F               0         Tower X orientation angle, node 11, rad
         65    1.105E-02,  9.988E-01,  4.788E-02         F               0         Tower Y orientation angle, node 11, rad
         66    1.663E-01, -4.905E-02,  9.849E-01         F               0         Tower Z orientation angle, node 11, rad
         67    7.741E-04                                 F               0         Tower X translation velocity, node 1, m/s
         68   -4.583E-04                                 F               0         Tower Y translation velocity, node 1, m/s
         69    5.074E-03                                 F               0         Tower Z translation velocity, node 1, m/s
         70    9.969E-04                                 F               0         Tower X translation velocity, node 2, m/s
         71   -7.557E-04                                 F               0         Tower Y translation velocity, node 2, m/s
         72    5.025E-03                                 F               0         Tower Z translation velocity, node 2, m/s
         73    1.144E-03                                 F               0         Tower X translation velocity, node 3, m/s
         74   -1.023E-03                                 F               0         Tower Y translation velocity, node 3, m/s
         75    4.988E-03                                 F               0         Tower Z translation velocity, node 3, m/s
         76    1.234E-03                                 F               0         Tower X translation velocity, node 4, m/s
         77   -1.267E-03                                 F               0         Tower Y translation velocity, node 4, m/s
         78    4.962E-03                                 F               0         Tower Z translation velocity, node 4, m/s
         79    1.279E-03                                 F               0         Tower X translation velocity, node 5, m/s
         80   -1.489E-03                                 F               0         Tower Y translation velocity, node 5, m/s
         81    4.944E-03                                 F               0         Tower Z translation velocity, node 5, m/s
         82    1.287E-03                                 F               0         Tower X translation velocity, node 6, m/s
         83   -1.692E-03                                 F               0         Tower Y translation velocity, node 6, m/s
         84    4.932E-03                                 F               0         Tower Z translation velocity, node 6, m/s
         85    1.269E-03                                 F               0         Tower X translation velocity, node 7, m/s
         86   -1.880E-03                                 F               0         Tower Y translation velocity, node 7, m/s
         87    4.926E-03                                 F               0         Tower Z translation velocity, node 7, m/s
         88    1.231E-03                                 F               0         Tower X translation velocity, node 8, m/s
         89   -2.054E-03                                 F               0         Tower Y translation velocity, node 8, m/s
         90    4.924E-03                                 F               0         Tower Z translation velocity, node 8, m/s
         91    1.180E-03                                 F               0         Tower X translation velocity, node 9, m/s
         92   -2.217E-03                                 F               0         Tower Y translation velocity, node 9, m/s
         93    4.924E-03                                 F               0         Tower Z translation velocity, node 9, m/s
         94    1.119E-03                                 F               0         Tower X translation velocity, node 10, m/s
         95   -2.372E-03                                 F               0         Tower Y translation velocity, node 10, m/s
         96    4.927E-03                                 F               0         Tower Z translation velocity, node 10, m/s
         97    1.055E-03                                 F               0         Tower X translation velocity, node 11, m/s
         98   -2.522E-03                                 F               0         Tower Y translation velocity, node 11, m/s
         99    4.930E-03                                 F               0         Tower Z translation velocity, node 11, m/s
        100    3.664E+01                                 F               0         Hub X translation displacement, node 1, m
        101   -7.745E+00                                 F               0         Hub Y translation displacement, node 1, m
        102   -5.849E-01                                 F               0         Hub Z translation displacement, node 1, m
        103    9.632E-01,  2.223E-03, -2.687E-01         F               0         Hub X orientation angle, node 1, rad
        104   -3.747E-02, -9.891E-01, -1.425E-01         F               0         Hub Y orientation angle, node 1, rad
        105   -2.661E-01,  1.473E-01, -9.526E-01         F               0         Hub Z orientation angle, node 1, rad
        106    1.004E+00                                 F               0         Hub X rotation velocity, node 1, rad/s
        107    2.311E-03                                 F               0         Hub Y rotation velocity, node 1, rad/s
        108   -2.800E-01                                 F               0         Hub Z rotation velocity, node 1, rad/s
        109    9.639E-01,  3.156E-02, -2.643E-01         F               0         Blade root 1 X orientation angle, node 1, rad
        110   -8.880E-03, -9.886E-01, -1.504E-01         F               0         Blade root 1 Y orientation angle, node 1, rad
        111   -2.661E-01,  1.473E-01, -9.526E-01         F               0         Blade root 1 Z orientation angle, node 1, rad
        112    9.691E-01, -1.623E-02, -2.462E-01         F               0         Blade root 2 X orientation angle, node 1, rad
        113   -1.830E-01,  6.219E-01, -7.614E-01         F               0         Blade root 2 Y orientation angle, node 1, rad
        114    1.655E-01,  7.829E-01,  5.997E-01         F               0         Blade root 2 Z orientation angle, node 1, rad
        115    9.554E-01, -8.664E-03, -2.952E-01         F               0         Blade root 3 X orientation angle, node 1, rad
        116    2.776E-01,  3.668E-01,  8.879E-01         F               0         Blade root 3 Y orientation angle, node 1, rad
        117    1.006E-01, -9.302E-01,  3.529E-01         F               0         Blade root 3 Z orientation angle, node 1, rad
        118    3.459E+01                                 F               0         Blade 1 X translation displacement, node 1, m
        119   -6.929E+00                                 F               0         Blade 1 Y translation displacement, node 1, m
        120   -1.137E+01                                 F               0         Blade 1 Z translation displacement, node 1, m
        121    3.409E+01                                 F               0         Blade 1 X translation displacement, node 2, m
        122   -6.733E+00                                 F               0         Blade 1 Y translation displacement, node 2, m
        123   -1.397E+01                                 F               0         Blade 1 Z translation displacement, node 2, m
        124    2.737E+01                                 F               0         Blade 1 X translation displacement, node 3, m
        125   -4.058E+00                                 F               0         Blade 1 Y translation displacement, node 3, m
        126   -4.932E+01                                 F               0         Blade 1 Z translation displacement, node 3, m
        127    2.593E+01                                 F               0         Blade 1 X translation displacement, node 4, m
        128   -3.488E+00                                 F               0         Blade 1 Y translation displacement, node 4, m
        129   -5.685E+01                                 F               0         Blade 1 Z translation displacement, node 4, m
        130    2.450E+01                                 F               0         Blade 1 X translation displacement, node 5, m
        131   -2.918E+00                                 F               0         Blade 1 Y translation displacement, node 5, m
        132   -6.438E+01                                 F               0         Blade 1 Z translation displacement, node 5, m
        133    2.307E+01                                 F               0         Blade 1 X translation displacement, node 6, m
        134   -2.348E+00                                 F               0         Blade 1 Y translation displacement, node 6, m
        135   -7.191E+01                                 F               0         Blade 1 Z translation displacement, node 6, m
        136    2.163E+01                                 F               0         Blade 1 X translation displacement, node 7, m
        137   -1.778E+00                                 F               0         Blade 1 Y translation displacement, node 7, m
        138   -7.944E+01                                 F               0         Blade 1 Z translation displacement, node 7, m
        139    2.020E+01                                 F               0         Blade 1 X translation displacement, node 8, m
        140   -1.208E+00                                 F               0         Blade 1 Y translation displacement, node 8, m
        141   -8.697E+01                                 F               0         Blade 1 Z translation displacement, node 8, m
        142    1.877E+01                                 F               0         Blade 1 X translation displacement, node 9, m
        143   -6.385E-01                                 F               0         Blade 1 Y translation displacement, node 9, m
        144   -9.450E+01                                 F               0         Blade 1 Z translation displacement, node 9, m
        145    1.733E+01                                 F               0         Blade 1 X translation displacement, node 10, m
        146   -6.860E-02                                 F               0         Blade 1 Y translation displacement, node 10, m
        147   -1.020E+02                                 F               0         Blade 1 Z translation displacement, node 10, m
        148    1.590E+01                                 F               0         Blade 1 X translation displacement, node 11, m
        149    5.013E-01                                 F               0         Blade 1 Y translation displacement, node 11, m
        150   -1.096E+02                                 F               0         Blade 1 Z translation displacement, node 11, m
        151    1.447E+01                                 F               0         Blade 1 X translation displacement, node 12, m
        152    1.071E+00                                 F               0         Blade 1 Y translation displacement, node 12, m
        153   -1.171E+02                                 F               0         Blade 1 Z translation displacement, node 12, m
        154    1.303E+01                                 F               0         Blade 1 X translation displacement, node 13, m
        155    1.641E+00                                 F               0         Blade 1 Y translation displacement, node 13, m
        156   -1.246E+02                                 F               0         Blade 1 Z translation displacement, node 13, m
        157    1.160E+01                                 F               0         Blade 1 X translation displacement, node 14, m
        158    2.211E+00                                 F               0         Blade 1 Y translation displacement, node 14, m
        159   -1.322E+02                                 F               0         Blade 1 Z translation displacement, node 14, m
        160    1.017E+01                                 F               0         Blade 1 X translation displacement, node 15, m
        161    2.781E+00                                 F               0         Blade 1 Y translation displacement, node 15, m
        162   -1.397E+02                                 F               0         Blade 1 Z translation displacement, node 15, m
        163    8.732E+00                                 F               0         Blade 1 X translation displacement, node 16, m
        164    3.351E+00                                 F               0         Blade 1 Y translation displacement, node 16, m
        165   -1.472E+02                                 F               0         Blade 1 Z translation displacement, node 16, m
        166    7.299E+00                                 F               0         Blade 1 X translation displacement, node 17, m
        167    3.921E+00                                 F               0         Blade 1 Y translation displacement, node 17, m
        168   -1.548E+02                                 F               0         Blade 1 Z translation displacement, node 17, m
        169    5.865E+00                                 F               0         Blade 1 X translation displacement, node 18, m
        170    4.490E+00                                 F               0         Blade 1 Y translation displacement, node 18, m
        171   -1.623E+02                                 F               0         Blade 1 Z translation displacement, node 18, m
        172    4.432E+00                                 F               0         Blade 1 X translation displacement, node 19, m
        173    5.060E+00                                 F               0         Blade 1 Y translation displacement, node 19, m
        174   -1.698E+02                                 F               0         Blade 1 Z translation displacement, node 19, m
        175    2.999E+00                                 F               0         Blade 1 X translation displacement, node 20, m
        176    5.630E+00                                 F               0         Blade 1 Y translation displacement, node 20, m
        177   -1.773E+02                                 F               0         Blade 1 Z translation displacement, node 20, m
        178    1.565E+00                                 F               0         Blade 1 X translation displacement, node 21, m
        179    6.200E+00                                 F               0         Blade 1 Y translation displacement, node 21, m
        180   -1.849E+02                                 F               0         Blade 1 Z translation displacement, node 21, m
        181    1.318E-01                                 F               0         Blade 1 X translation displacement, node 22, m
        182    6.770E+00                                 F               0         Blade 1 Y translation displacement, node 22, m
        183   -1.924E+02                                 F               0         Blade 1 Z translation displacement, node 22, m
        184   -1.301E+00                                 F               0         Blade 1 X translation displacement, node 23, m
        185    7.340E+00                                 F               0         Blade 1 Y translation displacement, node 23, m
        186   -1.999E+02                                 F               0         Blade 1 Z translation displacement, node 23, m
        187   -2.735E+00                                 F               0         Blade 1 X translation displacement, node 24, m
        188    7.910E+00                                 F               0         Blade 1 Y translation displacement, node 24, m
        189   -2.075E+02                                 F               0         Blade 1 Z translation displacement, node 24, m
        190   -4.168E+00                                 F               0         Blade 1 X translation displacement, node 25, m
        191    8.480E+00                                 F               0         Blade 1 Y translation displacement, node 25, m
        192   -2.150E+02                                 F               0         Blade 1 Z translation displacement, node 25, m
        193   -5.602E+00                                 F               0         Blade 1 X translation displacement, node 26, m
        194    9.050E+00                                 F               0         Blade 1 Y translation displacement, node 26, m
        195   -2.225E+02                                 F               0         Blade 1 Z translation displacement, node 26, m
        196   -7.035E+00                                 F               0         Blade 1 X translation displacement, node 27, m
        197    9.620E+00                                 F               0         Blade 1 Y translation displacement, node 27, m
        198   -2.301E+02                                 F               0         Blade 1 Z translation displacement, node 27, m
        199   -8.250E+00                                 F               0         Blade 1 X translation displacement, node 28, m
        200    1.010E+01                                 F               0         Blade 1 Y translation displacement, node 28, m
        201   -2.364E+02                                 F               0         Blade 1 Z translation displacement, node 28, m
        202    8.619E-01,  4.789E-01, -1.667E-01         F               0         Blade 1 X orientation angle, node 1, rad
        203    4.317E-01, -8.654E-01, -2.544E-01         F               0         Blade 1 Y orientation angle, node 1, rad
        204   -2.661E-01,  1.473E-01, -9.526E-01         F               0         Blade 1 Z orientation angle, node 1, rad
        205    8.619E-01,  4.789E-01, -1.667E-01         F               0         Blade 1 X orientation angle, node 2, rad
        206    4.317E-01, -8.654E-01, -2.544E-01         F               0         Blade 1 Y orientation angle, node 2, rad
        207   -2.661E-01,  1.473E-01, -9.526E-01         F               0         Blade 1 Z orientation angle, node 2, rad
        208    9.397E-01,  2.601E-01, -2.222E-01         F               0         Blade 1 X orientation angle, node 3, rad
        209    2.151E-01, -9.543E-01, -2.077E-01         F               0         Blade 1 Y orientation angle, node 3, rad
        210   -2.661E-01,  1.473E-01, -9.526E-01         F               0         Blade 1 Z orientation angle, node 3, rad
        211    9.479E-01,  2.196E-01, -2.308E-01         F               0         Blade 1 X orientation angle, node 4, rad
        212    1.752E-01, -9.644E-01, -1.981E-01         F               0         Blade 1 Y orientation angle, node 4, rad
        213   -2.661E-01,  1.473E-01, -9.526E-01         F               0         Blade 1 Z orientation angle, node 4, rad
        214    9.532E-01,  1.875E-01, -2.372E-01         F               0         Blade 1 X orientation angle, node 5, rad
        215    1.437E-01, -9.711E-01, -1.903E-01         F               0         Blade 1 Y orientation angle, node 5, rad
        216   -2.661E-01,  1.473E-01, -9.526E-01         F               0         Blade 1 Z orientation angle, node 5, rad
        217    9.567E-01,  1.617E-01, -2.422E-01         F               0         Blade 1 X orientation angle, node 6, rad
        218    1.183E-01, -9.758E-01, -1.840E-01         F               0         Blade 1 Y orientation angle, node 6, rad
        219   -2.661E-01,  1.473E-01, -9.526E-01         F               0         Blade 1 Z orientation angle, node 6, rad
        220    9.590E-01,  1.404E-01, -2.461E-01         F               0         Blade 1 X orientation angle, node 7, rad
        221    9.745E-02, -9.791E-01, -1.787E-01         F               0         Blade 1 Y orientation angle, node 7, rad
        222   -2.661E-01,  1.473E-01, -9.526E-01         F               0         Blade 1 Z orientation angle, node 7, rad
        223    9.606E-01,  1.226E-01, -2.493E-01         F               0         Blade 1 X orientation angle, node 8, rad
        224    8.003E-02, -9.815E-01, -1.742E-01         F               0         Blade 1 Y orientation angle, node 8, rad
        225   -2.661E-01,  1.473E-01, -9.526E-01         F               0         Blade 1 Z orientation angle, node 8, rad
        226    9.617E-01,  1.075E-01, -2.520E-01         F               0         Blade 1 X orientation angle, node 9, rad
        227    6.526E-02, -9.832E-01, -1.703E-01         F               0         Blade 1 Y orientation angle, node 9, rad