
Linearized model: Predictions were generated on 06-Feb-2024 at 16:18:08 using OpenFAST, compiled as a 64-bit application using single precision at commit v3.5.1
 linked with  NWTC Subroutine Library; ElastoDyn; InflowWind; AeroDyn; ServoDyn; HydroDyn; MAP++ (<1.20.10>, <Oct-20-2023>)

Description from the FAST input file: CCT-9 Campign 4 model. Input files to be run with OpenFAST 3.5.0. GitHub branch from Lu Wang (https://github.com/luwang00/openfast/tree/dev) compiled on March 7, 2023.

Simulation information:
   Simulation time:                  1006.7250 s
   Rotor Speed:                         1.0419 rad/s
   Azimuth:                             2.2244 rad
   Wind Speed:                         12.0000 m/s
   Number of continuous states:         0
   Number of discrete states:           0
   Number of constraint states:         0
   Number of inputs:                 1746
   Number of outputs:                   4
   Jacobians included in this file?    No

Order of inputs:
     Column   Operating Point                     Rotating Frame? Derivative Order Description
   ---------- ---------------                     --------------- ---------------- -----------
          1    1.513E+01                                 F               0         Tower X translation displacement, node 1, m
          2   -1.423E+00                                 F               0         Tower Y translation displacement, node 1, m
          3   -4.856E-01                                 F               0         Tower Z translation displacement, node 1, m
          4    1.704E+01                                 F               0         Tower X translation displacement, node 2, m
          5   -2.004E+00                                 F               0         Tower Y translation displacement, node 2, m
          6   -6.483E-01                                 F               0         Tower Z translation displacement, node 2, m
          7    1.899E+01                                 F               0         Tower X translation displacement, node 3, m
          8   -2.590E+00                                 F               0         Tower Y translation displacement, node 3, m
          9   -8.167E-01                                 F               0         Tower Z translation displacement, node 3, m
         10    2.096E+01                                 F               0         Tower X translation displacement, node 4, m
         11   -3.181E+00                                 F               0         Tower Y translation displacement, node 4, m
         12   -9.894E-01                                 F               0         Tower Z translation displacement, node 4, m
         13    2.296E+01                                 F               0         Tower X translation displacement, node 5, m
         14   -3.776E+00                                 F               0         Tower Y translation displacement, node 5, m
         15   -1.166E+00                                 F               0         Tower Z translation displacement, node 5, m
         16    2.497E+01                                 F               0         Tower X translation displacement, node 6, m
         17   -4.374E+00                                 F               0         Tower Y translation displacement, node 6, m
         18   -1.346E+00                                 F               0         Tower Z translation displacement, node 6, m
         19    2.699E+01                                 F               0         Tower X translation displacement, node 7, m
         20   -4.974E+00                                 F               0         Tower Y translation displacement, node 7, m
         21   -1.528E+00                                 F               0         Tower Z translation displacement, node 7, m
         22    2.903E+01                                 F               0         Tower X translation displacement, node 8, m
         23   -5.577E+00                                 F               0         Tower Y translation displacement, node 8, m
         24   -1.712E+00                                 F               0         Tower Z translation displacement, node 8, m
         25    3.108E+01                                 F               0         Tower X translation displacement, node 9, m
         26   -6.181E+00                                 F               0         Tower Y translation displacement, node 9, m
         27   -1.897E+00                                 F               0         Tower Z translation displacement, node 9, m
         28    3.313E+01                                 F               0         Tower X translation displacement, node 10, m
         29   -6.786E+00                                 F               0         Tower Y translation displacement, node 10, m
         30   -2.084E+00                                 F               0         Tower Z translation displacement, node 10, m
         31    3.518E+01                                 F               0         Tower X translation displacement, node 11, m
         32   -7.391E+00                                 F               0         Tower Y translation displacement, node 11, m
         33   -2.271E+00                                 F               0         Tower Z translation displacement, node 11, m
         34    9.881E-01, -3.536E-03, -1.540E-01         F               0         Tower X orientation angle, node 1, rad
         35    1.070E-02,  9.989E-01,  4.574E-02         F               0         Tower Y orientation angle, node 1, rad
         36    1.537E-01, -4.684E-02,  9.870E-01         F               0         Tower Z orientation angle, node 1, rad
         37    9.877E-01, -3.412E-03, -1.566E-01         F               0         Tower X orientation angle, node 2, rad
         38    1.077E-02,  9.989E-01,  4.615E-02         F               0         Tower Y orientation angle, node 2, rad
         39    1.563E-01, -4.727E-02,  9.866E-01         F               0         Tower Z orientation angle, node 2, rad
         40    9.873E-01, -3.302E-03, -1.589E-01         F               0         Tower X orientation angle, node 3, rad
         41    1.083E-02,  9.989E-01,  4.651E-02         F               0         Tower Y orientation angle, node 3, rad
         42    1.585E-01, -4.764E-02,  9.862E-01         F               0         Tower Z orientation angle, node 3, rad
         43    9.870E-01, -3.207E-03, -1.608E-01         F               0         Tower X orientation angle, node 4, rad
         44    1.088E-02,  9.988E-01,  4.683E-02         F               0         Tower Y orientation angle, node 4, rad
         45    1.605E-01, -4.797E-02,  9.859E-01         F               0         Tower Z orientation angle, node 4, rad
         46    9.867E-01, -3.127E-03, -1.625E-01         F               0         Tower X orientation angle, node 5, rad
         47    1.092E-02,  9.988E-01,  4.711E-02         F               0         Tower Y orientation angle, node 5, rad
         48    1.621E-01, -4.825E-02,  9.856E-01         F               0         Tower Z orientation angle, node 5, rad
         49    9.865E-01, -3.061E-03, -1.638E-01         F               0         Tower X orientation angle, node 6, rad
         50    1.096E-02,  9.988E-01,  4.734E-02         F               0         Tower Y orientation angle, node 6, rad
         51    1.635E-01, -4.849E-02,  9.854E-01         F               0         Tower Z orientation angle, node 6, rad
         52    9.863E-01, -3.011E-03, -1.648E-01         F               0         Tower X orientation angle, node 7, rad
         53    1.099E-02,  9.988E-01,  4.752E-02         F               0         Tower Y orientation angle, node 7, rad
         54    1.645E-01, -4.868E-02,  9.852E-01         F               0         Tower Z orientation angle, node 7, rad
         55    9.862E-01, -2.973E-03, -1.656E-01         F               0         Tower X orientation angle, node 8, rad
         56    1.101E-02,  9.988E-01,  4.766E-02         F               0         Tower Y orientation angle, node 8, rad
         57    1.653E-01, -4.883E-02,  9.850E-01         F               0         Tower Z orientation angle, node 8, rad
         58    9.861E-01, -2.946E-03, -1.661E-01         F               0         Tower X orientation angle, node 9, rad
         59    1.103E-02,  9.988E-01,  4.777E-02         F               0         Tower Y orientation angle, node 9, rad
         60    1.658E-01, -4.893E-02,  9.849E-01         F               0         Tower Z orientation angle, node 9, rad
         61    9.860E-01, -2.929E-03, -1.665E-01         F               0         Tower X orientation angle, node 10, rad
         62    1.104E-02,  9.988E-01,  4.783E-02         F               0         Tower Y orientation angle, node 10, rad
         63    1.661E-01, -4.900E-02,  9.849E-01         F               0         Tower Z orientation angle, node 10, rad
         64    9.860E-01, -2.920E-03, -1.666E-01         F               0         Tower X orientation angle, node 11, rad
         65    1.105E-02,  9.988E-01,  4.787E-02         F               0         Tower Y orientation angle, node 11, rad
         66    1.663E-01, -4.904E-02,  9.849E-01         F               0         Tower Z orientation angle, node 11, rad
         67    3.487E-04                                 F               0         Tower X translation velocity, node 1, m/s
         68    3.357E-04                                 F               0         Tower Y translation velocity, node 1, m/s
         69    4.990E-03                                 F               0         Tower Z translation velocity, node 1, m/s
         70    4.831E-04                                 F               0         Tower X translation velocity, node 2, m/s
         71    5.511E-04                                 F               0         Tower Y translation velocity, node 2, m/s
         72    4.979E-03                                 F               0         Tower Z translation velocity, node 2, m/s
         73    6.750E-04                                 F               0         Tower X translation velocity, node 3, m/s
         74    7.384E-04                                 F               0         Tower Y translation velocity, node 3, m/s
         75    4.958E-03                                 F               0         Tower Z translation velocity, node 3, m/s
         76    9.038E-04                                 F               0         Tower X translation velocity, node 4, m/s
         77    9.029E-04                                 F               0         Tower Y translation velocity, node 4, m/s
         78    4.929E-03                                 F               0         Tower Z translation velocity, node 4, m/s
         79    1.156E-03                                 F               0         Tower X translation velocity, node 5, m/s
         80    1.047E-03                                 F               0         Tower Y translation velocity, node 5, m/s
         81    4.894E-03                                 F               0         Tower Z translation velocity, node 5, m/s
         82    1.421E-03                                 F               0         Tower X translation velocity, node 6, m/s
         83    1.173E-03                                 F               0         Tower Y translation velocity, node 6, m/s
         84    4.857E-03                                 F               0         Tower Z translation velocity, node 6, m/s
         85    1.690E-03                                 F               0         Tower X translation velocity, node 7, m/s
         86    1.285E-03                                 F               0         Tower Y translation velocity, node 7, m/s
         87    4.818E-03                                 F               0         Tower Z translation velocity, node 7, m/s
         88    1.955E-03                                 F               0         Tower X translation velocity, node 8, m/s
         89    1.383E-03                                 F               0         Tower Y translation velocity, node 8, m/s
         90    4.778E-03                                 F               0         Tower Z translation velocity, node 8, m/s
         91    2.215E-03                                 F               0         Tower X translation velocity, node 9, m/s
         92    1.472E-03                                 F               0         Tower Y translation velocity, node 9, m/s
         93    4.739E-03                                 F               0         Tower Z translation velocity, node 9, m/s
         94    2.466E-03                                 F               0         Tower X translation velocity, node 10, m/s
         95    1.553E-03                                 F               0         Tower Y translation velocity, node 10, m/s
         96    4.700E-03                                 F               0         Tower Z translation velocity, node 10, m/s
         97    2.710E-03                                 F               0         Tower X translation velocity, node 11, m/s
         98    1.629E-03                                 F               0         Tower Y translation velocity, node 11, m/s
         99    4.663E-03                                 F               0         Tower Z translation velocity, node 11, m/s
        100    3.664E+01                                 F               0         Hub X translation displacement, node 1, m
        101   -7.745E+00                                 F               0         Hub Y translation displacement, node 1, m
        102   -5.897E-01                                 F               0         Hub Z translation displacement, node 1, m
        103    9.632E-01,  2.222E-03, -2.687E-01         F               0         Hub X orientation angle, node 1, rad
        104    2.064E-01, -6.463E-01,  7.346E-01         F               0         Hub Y orientation angle, node 1, rad
        105   -1.720E-01, -7.631E-01, -6.230E-01         F               0         Hub Z orientation angle, node 1, rad
        106    1.004E+00                                 F               0         Hub X rotation velocity, node 1, rad/s
        107    2.335E-03                                 F               0         Hub Y rotation velocity, node 1, rad/s
        108   -2.799E-01                                 F               0         Hub Z rotation velocity, node 1, rad/s
        109    9.567E-01,  2.139E-02, -2.904E-01         F               0         Blade root 1 X orientation angle, node 1, rad
        110    2.349E-01, -6.460E-01,  7.263E-01         F               0         Blade root 1 Y orientation angle, node 1, rad
        111   -1.720E-01, -7.631E-01, -6.230E-01         F               0         Blade root 1 Z orientation angle, node 1, rad
        112    9.703E-01,  1.224E-02, -2.417E-01         F               0         Blade root 2 X orientation angle, node 1, rad
        113   -2.235E-01, -3.375E-01, -9.144E-01         F               0         Blade root 2 Y orientation angle, node 1, rad
        114   -9.275E-02,  9.413E-01, -3.247E-01         F               0         Blade root 2 Z orientation angle, node 1, rad
        115    9.614E-01, -2.697E-02, -2.737E-01         F               0         Blade root 3 X orientation angle, node 1, rad
        116    7.432E-02,  9.836E-01,  1.642E-01         F               0         Blade root 3 Y orientation angle, node 1, rad
        117    2.648E-01, -1.782E-01,  9.477E-01         F               0         Blade root 3 Z orientation angle, node 1, rad
        118    3.511E+01                                 F               0         Blade 1 X translation displacement, node 1, m
        119   -1.197E+01                                 F               0         Blade 1 Y translation displacement, node 1, m
        120   -9.551E+00                                 F               0         Blade 1 Z translation displacement, node 1, m
        121    3.474E+01                                 F               0         Blade 1 X translation displacement, node 2, m
        122   -1.299E+01                                 F               0         Blade 1 Y translation displacement, node 2, m
        123   -1.171E+01                                 F               0         Blade 1 Z translation displacement, node 2, m
        124    2.972E+01                                 F               0         Blade 1 X translation displacement, node 3, m
        125   -2.684E+01                                 F               0         Blade 1 Y translation displacement, node 3, m
        126   -4.107E+01                                 F               0         Blade 1 Z translation displacement, node 3, m
        127    2.865E+01                                 F               0         Blade 1 X translation displacement, node 4, m
        128   -2.979E+01                                 F               0         Blade 1 Y translation displacement, node 4, m
        129   -4.733E+01                                 F               0         Blade 1 Z translation displacement, node 4, m
        130    2.758E+01                                 F               0         Blade 1 X translation displacement, node 5, m
        131   -3.275E+01                                 F               0         Blade 1 Y translation displacement, node 5, m
        132   -5.358E+01                                 F               0         Blade 1 Z translation displacement, node 5, m
        133    2.651E+01                                 F               0         Blade 1 X translation displacement, node 6, m
        134   -3.570E+01                                 F               0         Blade 1 Y translation displacement, node 6, m
        135   -5.984E+01                                 F               0         Blade 1 Z translation displacement, node 6, m
        136    2.544E+01                                 F               0         Blade 1 X translation displacement, node 7, m
        137   -3.865E+01                                 F               0         Blade 1 Y translation displacement, node 7, m
        138   -6.610E+01                                 F               0         Blade 1 Z translation displacement, node 7, m
        139    2.437E+01                                 F               0         Blade 1 X translation displacement, node 8, m
        140   -4.160E+01                                 F               0         Blade 1 Y translation displacement, node 8, m
        141   -7.235E+01                                 F               0         Blade 1 Z translation displacement, node 8, m
        142    2.330E+01                                 F               0         Blade 1 X translation displacement, node 9, m
        143   -4.455E+01                                 F               0         Blade 1 Y translation displacement, node 9, m
        144   -7.861E+01                                 F               0         Blade 1 Z translation displacement, node 9, m
        145    2.223E+01                                 F               0         Blade 1 X translation displacement, node 10, m
        146   -4.750E+01                                 F               0         Blade 1 Y translation displacement, node 10, m
        147   -8.486E+01                                 F               0         Blade 1 Z translation displacement, node 10, m
        148    2.116E+01                                 F               0         Blade 1 X translation displacement, node 11, m
        149   -5.045E+01                                 F               0         Blade 1 Y translation displacement, node 11, m
        150   -9.112E+01                                 F               0         Blade 1 Z translation displacement, node 11, m
        151    2.009E+01                                 F               0         Blade 1 X translation displacement, node 12, m
        152   -5.340E+01                                 F               0         Blade 1 Y translation displacement, node 12, m
        153   -9.738E+01                                 F               0         Blade 1 Z translation displacement, node 12, m
        154    1.902E+01                                 F               0         Blade 1 X translation displacement, node 13, m
        155   -5.636E+01                                 F               0         Blade 1 Y translation displacement, node 13, m
        156   -1.036E+02                                 F               0         Blade 1 Z translation displacement, node 13, m
        157    1.795E+01                                 F               0         Blade 1 X translation displacement, node 14, m
        158   -5.931E+01                                 F               0         Blade 1 Y translation displacement, node 14, m
        159   -1.099E+02                                 F               0         Blade 1 Z translation displacement, node 14, m
        160    1.688E+01                                 F               0         Blade 1 X translation displacement, node 15, m
        161   -6.226E+01                                 F               0         Blade 1 Y translation displacement, node 15, m
        162   -1.161E+02                                 F               0         Blade 1 Z translation displacement, node 15, m
        163    1.581E+01                                 F               0         Blade 1 X translation displacement, node 16, m
        164   -6.521E+01                                 F               0         Blade 1 Y translation displacement, node 16, m
        165   -1.224E+02                                 F               0         Blade 1 Z translation displacement, node 16, m
        166    1.474E+01                                 F               0         Blade 1 X translation displacement, node 17, m
        167   -6.816E+01                                 F               0         Blade 1 Y translation displacement, node 17, m
        168   -1.287E+02                                 F               0         Blade 1 Z translation displacement, node 17, m
        169    1.367E+01                                 F               0         Blade 1 X translation displacement, node 18, m
        170   -7.111E+01                                 F               0         Blade 1 Y translation displacement, node 18, m
        171   -1.349E+02                                 F               0         Blade 1 Z translation displacement, node 18, m
        172    1.260E+01                                 F               0         Blade 1 X translation displacement, node 19, m
        173   -7.406E+01                                 F               0         Blade 1 Y translation displacement, node 19, m
        174   -1.412E+02                                 F               0         Blade 1 Z translation displacement, node 19, m
        175    1.153E+01                                 F               0         Blade 1 X translation displacement, node 20, m
        176   -7.702E+01                                 F               0         Blade 1 Y translation displacement, node 20, m
        177   -1.474E+02                                 F               0         Blade 1 Z translation displacement, node 20, m
        178    1.047E+01                                 F               0         Blade 1 X translation displacement, node 21, m
        179   -7.997E+01                                 F               0         Blade 1 Y translation displacement, node 21, m
        180   -1.537E+02                                 F               0         Blade 1 Z translation displacement, node 21, m
        181    9.395E+00                                 F               0         Blade 1 X translation displacement, node 22, m
        182   -8.292E+01                                 F               0         Blade 1 Y translation displacement, node 22, m
        183   -1.599E+02                                 F               0         Blade 1 Z translation displacement, node 22, m
        184    8.326E+00                                 F               0         Blade 1 X translation displacement, node 23, m
        185   -8.587E+01                                 F               0         Blade 1 Y translation displacement, node 23, m
        186   -1.662E+02                                 F               0         Blade 1 Z translation displacement, node 23, m
        187    7.256E+00                                 F               0         Blade 1 X translation displacement, node 24, m
        188   -8.882E+01                                 F               0         Blade 1 Y translation displacement, node 24, m
        189   -1.724E+02                                 F               0         Blade 1 Z translation displacement, node 24, m
        190    6.187E+00                                 F               0         Blade 1 X translation displacement, node 25, m
        191   -9.177E+01                                 F               0         Blade 1 Y translation displacement, node 25, m
        192   -1.787E+02                                 F               0         Blade 1 Z translation displacement, node 25, m
        193    5.117E+00                                 F               0         Blade 1 X translation displacement, node 26, m
        194   -9.472E+01                                 F               0         Blade 1 Y translation displacement, node 26, m
        195   -1.850E+02                                 F               0         Blade 1 Z translation displacement, node 26, m
        196    4.048E+00                                 F               0         Blade 1 X translation displacement, node 27, m
        197   -9.768E+01                                 F               0         Blade 1 Y translation displacement, node 27, m
        198   -1.912E+02                                 F               0         Blade 1 Z translation displacement, node 27, m
        199    3.141E+00                                 F               0         Blade 1 X translation displacement, node 28, m
        200   -1.002E+02                                 F               0         Blade 1 Y translation displacement, node 28, m
        201   -1.965E+02                                 F               0         Blade 1 Z translation displacement, node 28, m
        202    7.443E-01,  3.136E-01, -5.896E-01         F               0         Blade 1 X orientation angle, node 1, rad
        203    6.453E-01, -5.651E-01,  5.140E-01         F               0         Blade 1 Y orientation angle, node 1, rad
        204   -1.720E-01, -7.631E-01, -6.230E-01         F               0         Blade 1 Z orientation angle, node 1, rad
        205    7.443E-01,  3.136E-01, -5.896E-01         F               0         Blade 1 X orientation angle, node 2, rad
        206    6.453E-01, -5.651E-01,  5.140E-01         F               0         Blade 1 Y orientation angle, node 2, rad
        207   -1.720E-01, -7.631E-01, -6.230E-01         F               0         Blade 1 Z orientation angle, node 2, rad
        208    8.760E-01,  1.707E-01, -4.510E-01         F               0         Blade 1 X orientation angle, node 3, rad
        209    4.505E-01, -6.234E-01,  6.391E-01         F               0         Blade 1 Y orientation angle, node 3, rad
        210   -1.720E-01, -7.631E-01, -6.230E-01         F               0         Blade 1 Z orientation angle, node 3, rad
        211    8.943E-01,  1.443E-01, -4.236E-01         F               0         Blade 1 X orientation angle, node 4, rad
        212    4.131E-01, -6.300E-01,  6.576E-01         F               0         Blade 1 Y orientation angle, node 4, rad
        213   -1.720E-01, -7.631E-01, -6.230E-01         F               0         Blade 1 Z orientation angle, node 4, rad
        214    9.075E-01,  1.233E-01, -4.016E-01         F               0         Blade 1 X orientation angle, node 5, rad
        215    3.832E-01, -6.344E-01,  6.713E-01         F               0         Blade 1 Y orientation angle, node 5, rad
        216   -1.720E-01, -7.631E-01, -6.230E-01         F               0         Blade 1 Z orientation angle, node 5, rad
        217    9.173E-01,  1.064E-01, -3.836E-01         F               0         Blade 1 X orientation angle, node 6, rad
        218    3.590E-01, -6.375E-01,  6.817E-01         F               0         Blade 1 Y orientation angle, node 6, rad
        219   -1.720E-01, -7.631E-01, -6.230E-01         F               0         Blade 1 Z orientation angle, node 6, rad
        220    9.249E-01,  9.248E-02, -3.687E-01         F               0         Blade 1 X orientation angle, node 7, rad
        221    3.389E-01, -6.397E-01,  6.899E-01         F               0         Blade 1 Y orientation angle, node 7, rad
        222   -1.720E-01, -7.631E-01, -6.230E-01         F               0         Blade 1 Z orientation angle, node 7, rad
        223    9.309E-01,  8.086E-02, -3.561E-01         F               0         Blade 1 X orientation angle, node 8, rad
        224    3.221E-01, -6.412E-01,  6.965E-01         F               0         Blade 1 Y orientation angle, node 8, rad
        225   -1.720E-01, -7.631E-01, -6.230E-01         F               0         Blade 1 Z orientation angle, node 8, rad
        226    9.358E-01,  7.100E-02, -3.453E-01         F               0         Blade 1 X orientation angle, node 9, rad
        227    3.078E-01, -6.424E-01,  7.019E-01         F               0         Blade 1 Y orientation angle, node 9, rad