
Linearized model: Predictions were generated on 06-Feb-2024 at 16:18:08 using OpenFAST, compiled as a 64-bit application using single precision at commit v3.5.1
 linked with  NWTC Subroutine Library; ElastoDyn; InflowWind; AeroDyn; ServoDyn; HydroDyn; MAP++ (<1.20.10>, <Oct-20-2023>)

Description from the FAST input file: CCT-9 Campign 4 model. Input files to be run with OpenFAST 3.5.0. GitHub branch from Lu Wang (https://github.com/luwang00/openfast/tree/dev) compiled on March 7, 2023.

Simulation information:
   Simulation time:                  1000.2500 s
   Rotor Speed:                         1.0419 rad/s
   Azimuth:                             1.7609 rad
   Wind Speed:                         12.0000 m/s
   Number of continuous states:        18
   Number of discrete states:           0
   Number of constraint states:         0
   Number of inputs:                 1890
   Number of outputs:                  19
   Jacobians included in this file?    No

Order of continuous states:
   Row/Column Operating Point                     Rotating Frame? Derivative Order Description
   ---------- ---------------                     --------------- ---------------- -----------
          1    1.231E+01                                 F               2         Platform horizontal surge translation DOF (internal DOF index = DOF_Sg), m
          2   -2.547E-01                                 F               2         Platform vertical heave translation DOF (internal DOF index = DOF_Hv), m
          3    4.693E-02                                 F               2         Platform roll tilt rotation DOF (internal DOF index = DOF_R), rad
          4    1.559E-01                                 F               2         Platform pitch tilt rotation DOF (internal DOF index = DOF_P), rad
          5    1.080E+00                                 F               2         1st tower fore-aft bending mode DOF (internal DOF index = DOF_TFA1), m
          6    1.769E-01                                 F               2         1st tower side-to-side bending mode DOF (internal DOF index = DOF_TSS1), m
          7    1.602E-03                                 F               2         2nd tower fore-aft bending mode DOF (internal DOF index = DOF_TFA2), m
          8    7.670E-05                                 F               2         2nd tower side-to-side bending mode DOF (internal DOF index = DOF_TSS2), m
          9    1.901E-01                                 F               2         Variable speed generator DOF (internal DOF index = DOF_GeAz), rad
         10    9.767E-05                                 F               2         First time derivative of Platform horizontal surge translation DOF (internal DOF index = DOF_Sg), m/s
         11   -3.143E-03                                 F               2         First time derivative of Platform vertical heave translation DOF (internal DOF index = DOF_Hv), m/s
         12   -3.885E-05                                 F               2         First time derivative of Platform roll tilt rotation DOF (internal DOF index = DOF_R), rad/s
         13   -2.451E-06                                 F               2         First time derivative of Platform pitch tilt rotation DOF (internal DOF index = DOF_P), rad/s
         14    7.061E-04                                 F               2         First time derivative of 1st tower fore-aft bending mode DOF (internal DOF index = DOF_TFA1), m/s
         15    1.364E-03                                 F               2         First time derivative of 1st tower side-to-side bending mode DOF (internal DOF index = DOF_TSS1), m/s
         16    7.092E-06                                 F               2         First time derivative of 2nd tower fore-aft bending mode DOF (internal DOF index = DOF_TFA2), m/s
         17   -2.976E-06                                 F               2         First time derivative of 2nd tower side-to-side bending mode DOF (internal DOF index = DOF_TSS2), m/s
         18    1.042E+00                                 F               2         First time derivative of Variable speed generator DOF (internal DOF index = DOF_GeAz), rad/s

Order of continuous state derivatives:
   Row/Column Operating Point                     Rotating Frame? Derivative Order Description
   ---------- ---------------                     --------------- ---------------- -----------
          1    9.767E-05                                 F               2         First time derivative of Platform horizontal surge translation DOF (internal DOF index = DOF_Sg), m/s
          2   -3.143E-03                                 F               2         First time derivative of Platform vertical heave translation DOF (internal DOF index = DOF_Hv), m/s
          3   -3.885E-05                                 F               2         First time derivative of Platform roll tilt rotation DOF (internal DOF index = DOF_R), rad/s
          4   -2.451E-06                                 F               2         First time derivative of Platform pitch tilt rotation DOF (internal DOF index = DOF_P), rad/s
          5    7.061E-04                                 F               2         First time derivative of 1st tower fore-aft bending mode DOF (internal DOF index = DOF_TFA1), m/s
          6    1.364E-03                                 F               2         First time derivative of 1st tower side-to-side bending mode DOF (internal DOF index = DOF_TSS1), m/s
          7    7.092E-06                                 F               2         First time derivative of 2nd tower fore-aft bending mode DOF (internal DOF index = DOF_TFA2), m/s
          8   -2.976E-06                                 F               2         First time derivative of 2nd tower side-to-side bending mode DOF (internal DOF index = DOF_TSS2), m/s
          9    1.042E+00                                 F               2         First time derivative of Variable speed generator DOF (internal DOF index = DOF_GeAz), rad/s
         10   -1.866E-04                                 F               2         First time derivative of First time derivative of Platform horizontal surge translation DOF (internal DOF index = DOF_Sg), m/s/s
         11    1.421E-03                                 F               2         First time derivative of First time derivative of Platform vertical heave translation DOF (internal DOF index = DOF_Hv), m/s/s
         12    2.777E-05                                 F               2         First time derivative of First time derivative of Platform roll tilt rotation DOF (internal DOF index = DOF_R), rad/s/s
         13   -9.678E-06                                 F               2         First time derivative of First time derivative of Platform pitch tilt rotation DOF (internal DOF index = DOF_P), rad/s/s
         14    4.530E-03                                 F               2         First time derivative of First time derivative of 1st tower fore-aft bending mode DOF (internal DOF index = DOF_TFA1), m/s/s
         15   -1.034E-03                                 F               2         First time derivative of First time derivative of 1st tower side-to-side bending mode DOF (internal DOF index = DOF_TSS1), m/s/s
         16    3.439E-05                                 F               2         First time derivative of First time derivative of 2nd tower fore-aft bending mode DOF (internal DOF index = DOF_TFA2), m/s/s
         17    2.242E-06                                 F               2         First time derivative of First time derivative of 2nd tower side-to-side bending mode DOF (internal DOF index = DOF_TSS2), m/s/s
         18    9.856E-05                                 F               2         First time derivative of First time derivative of Variable speed generator DOF (internal DOF index = DOF_GeAz), rad/s/s

Order of inputs:
     Column   Operating Point                     Rotating Frame? Derivative Order Description
   ---------- ---------------                     --------------- ---------------- -----------
          1    1.657E+02                                 F               0         Blade 1 X force, node 1, N
          2   -5.027E+01                                 F               0         Blade 1 Y force, node 1, N
          3    1.688E+02                                 F               0         Blade 1 Z force, node 1, N
          4    5.460E+02                                 F               0         Blade 1 X force, node 2, N
          5   -8.361E+01                                 F               0         Blade 1 Y force, node 2, N
          6    2.080E+02                                 F               0         Blade 1 Z force, node 2, N
          7    6.228E+02                                 F               0         Blade 1 X force, node 3, N
          8   -6.071E+01                                 F               0         Blade 1 Y force, node 3, N
          9    9.014E+01                                 F               0         Blade 1 Z force, node 3, N
         10    7.597E+02                                 F               0         Blade 1 X force, node 4, N
         11   -4.896E+01                                 F               0         Blade 1 Y force, node 4, N
         12    3.438E+00                                 F               0         Blade 1 Z force, node 4, N
         13    8.966E+02                                 F               0         Blade 1 X force, node 5, N
         14   -3.722E+01                                 F               0         Blade 1 Y force, node 5, N
         15   -8.327E+01                                 F               0         Blade 1 Z force, node 5, N
         16    1.033E+03                                 F               0         Blade 1 X force, node 6, N
         17   -2.547E+01                                 F               0         Blade 1 Y force, node 6, N
         18   -1.700E+02                                 F               0         Blade 1 Z force, node 6, N
         19    1.170E+03                                 F               0         Blade 1 X force, node 7, N
         20   -1.373E+01                                 F               0         Blade 1 Y force, node 7, N
         21   -2.567E+02                                 F               0         Blade 1 Z force, node 7, N
         22    1.307E+03                                 F               0         Blade 1 X force, node 8, N
         23   -1.979E+00                                 F               0         Blade 1 Y force, node 8, N
         24   -3.434E+02                                 F               0         Blade 1 Z force, node 8, N
         25    1.444E+03                                 F               0         Blade 1 X force, node 9, N
         26    9.767E+00                                 F               0         Blade 1 Y force, node 9, N
         27   -4.301E+02                                 F               0         Blade 1 Z force, node 9, N
         28    1.581E+03                                 F               0         Blade 1 X force, node 10, N
         29    2.151E+01                                 F               0         Blade 1 Y force, node 10, N
         30   -5.168E+02                                 F               0         Blade 1 Z force, node 10, N
         31    1.718E+03                                 F               0         Blade 1 X force, node 11, N
         32    3.326E+01                                 F               0         Blade 1 Y force, node 11, N
         33   -6.035E+02                                 F               0         Blade 1 Z force, node 11, N
         34    1.855E+03                                 F               0         Blade 1 X force, node 12, N
         35    4.501E+01                                 F               0         Blade 1 Y force, node 12, N
         36   -6.902E+02                                 F               0         Blade 1 Z force, node 12, N
         37    1.992E+03                                 F               0         Blade 1 X force, node 13, N
         38    5.675E+01                                 F               0         Blade 1 Y force, node 13, N
         39   -7.769E+02                                 F               0         Blade 1 Z force, node 13, N
         40    2.128E+03                                 F               0         Blade 1 X force, node 14, N
         41    6.850E+01                                 F               0         Blade 1 Y force, node 14, N
         42   -8.636E+02                                 F               0         Blade 1 Z force, node 14, N
         43    2.265E+03                                 F               0         Blade 1 X force, node 15, N
         44    8.024E+01                                 F               0         Blade 1 Y force, node 15, N
         45   -9.503E+02                                 F               0         Blade 1 Z force, node 15, N
         46    2.402E+03                                 F               0         Blade 1 X force, node 16, N
         47    9.199E+01                                 F               0         Blade 1 Y force, node 16, N
         48   -1.037E+03                                 F               0         Blade 1 Z force, node 16, N
         49    2.949E+03                                 F               0         Blade 1 X force, node 17, N
         50    1.200E+02                                 F               0         Blade 1 Y force, node 17, N
         51   -1.303E+03                                 F               0         Blade 1 Z force, node 17, N
         52    2.288E+03                                 F               0         Blade 1 X force, node 18, N
         53    9.108E+01                                 F               0         Blade 1 Y force, node 18, N
         54   -1.002E+03                                 F               0         Blade 1 Z force, node 18, N
         55    2.862E+03                                 F               0         Blade 1 X force, node 19, N
         56    1.087E+02                                 F               0         Blade 1 Y force, node 19, N
         57   -1.232E+03                                 F               0         Blade 1 Z force, node 19, N
         58    2.484E+03                                 F               0         Blade 1 X force, node 20, N
         59    9.032E+01                                 F               0         Blade 1 Y force, node 20, N
         60   -1.052E+03                                 F               0         Blade 1 Z force, node 20, N
         61    3.739E+03                                 F               0         Blade 1 X force, node 21, N
         62    1.291E+02                                 F               0         Blade 1 Y force, node 21, N
         63   -1.554E+03                                 F               0         Blade 1 Z force, node 21, N
         64    3.360E+03                                 F               0         Blade 1 X force, node 22, N
         65    1.097E+02                                 F               0         Blade 1 Y force, node 22, N
         66   -1.370E+03                                 F               0         Blade 1 Z force, node 22, N
         67    3.505E+03                                 F               0         Blade 1 X force, node 23, N
         68    1.088E+02                                 F               0         Blade 1 Y force, node 23, N
         69   -1.405E+03                                 F               0         Blade 1 Z force, node 23, N
         70    3.712E+03                                 F               0         Blade 1 X force, node 24, N
         71    1.097E+02                                 F               0         Blade 1 Y force, node 24, N
         72   -1.465E+03                                 F               0         Blade 1 Z force, node 24, N
         73    3.855E+03                                 F               0         Blade 1 X force, node 25, N
         74    1.083E+02                                 F               0         Blade 1 Y force, node 25, N
         75   -1.497E+03                                 F               0         Blade 1 Z force, node 25, N
         76    4.018E+03                                 F               0         Blade 1 X force, node 26, N
         77    1.073E+02                                 F               0         Blade 1 Y force, node 26, N
         78   -1.537E+03                                 F               0         Blade 1 Z force, node 26, N
         79    4.873E+03                                 F               0         Blade 1 X force, node 27, N
         80    1.235E+02                                 F               0         Blade 1 Y force, node 27, N
         81   -1.836E+03                                 F               0         Blade 1 Z force, node 27, N
         82    3.653E+03                                 F               0         Blade 1 X force, node 28, N
         83    8.783E+01                                 F               0         Blade 1 Y force, node 28, N
         84   -1.356E+03                                 F               0         Blade 1 Z force, node 28, N
         85    4.508E+03                                 F               0         Blade 1 X force, node 29, N
         86    1.036E+02                                 F               0         Blade 1 Y force, node 29, N
         87   -1.653E+03                                 F               0         Blade 1 Z force, node 29, N
         88    3.867E+03                                 F               0         Blade 1 X force, node 30, N
         89    8.508E+01                                 F               0         Blade 1 Y force, node 30, N
         90   -1.402E+03                                 F               0         Blade 1 Z force, node 30, N
         91    5.637E+03                                 F               0         Blade 1 X force, node 31, N
         92    1.178E+02                                 F               0         Blade 1 Y force, node 31, N
         93   -2.017E+03                                 F               0         Blade 1 Z force, node 31, N
         94    4.995E+03                                 F               0         Blade 1 X force, node 32, N
         95    9.886E+01                                 F               0         Blade 1 Y force, node 32, N
         96   -1.764E+03                                 F               0         Blade 1 Z force, node 32, N
         97    5.156E+03                                 F               0         Blade 1 X force, node 33, N
         98    9.705E+01                                 F               0         Blade 1 Y force, node 33, N
         99   -1.800E+03                                 F               0         Blade 1 Z force, node 33, N
        100    5.318E+03                                 F               0         Blade 1 X force, node 34, N
        101    9.522E+01                                 F               0         Blade 1 Y force, node 34, N
        102   -1.835E+03                                 F               0         Blade 1 Z force, node 34, N
        103    5.479E+03                                 F               0         Blade 1 X force, node 35, N
        104    9.322E+01                                 F               0         Blade 1 Y force, node 35, N
        105   -1.870E+03                                 F               0         Blade 1 Z force, node 35, N
        106    5.639E+03                                 F               0         Blade 1 X force, node 36, N
        107    9.115E+01                                 F               0         Blade 1 Y force, node 36, N
        108   -1.905E+03                                 F               0         Blade 1 Z force, node 36, N
        109    6.788E+03                                 F               0         Blade 1 X force, node 37, N
        110    1.039E+02                                 F               0         Blade 1 Y force, node 37, N
        111   -2.268E+03                                 F               0         Blade 1 Z force, node 37, N
        112    4.973E+03                                 F               0         Blade 1 X force, node 38, N
        113    7.210E+01                                 F               0         Blade 1 Y force, node 38, N
        114   -1.644E+03                                 F               0         Blade 1 Z force, node 38, N
        115    6.123E+03                                 F               0         Blade 1 X force, node 39, N
        116    8.474E+01                                 F               0         Blade 1 Y force, node 39, N
        117   -2.008E+03                                 F               0         Blade 1 Z force, node 39, N
        118    5.244E+03                                 F               0         Blade 1 X force, node 40, N
        119    6.928E+01                                 F               0         Blade 1 Y force, node 40, N
        120   -1.705E+03                                 F               0         Blade 1 Z force, node 40, N
        121    7.485E+03                                 F               0         Blade 1 X force, node 41, N
        122    9.353E+01                                 F               0         Blade 1 Y force, node 41, N
        123   -2.411E+03                                 F               0         Blade 1 Z force, node 41, N
        124    6.603E+03                                 F               0         Blade 1 X force, node 42, N
        125    7.782E+01                                 F               0         Blade 1 Y force, node 42, N
        126   -2.107E+03                                 F               0         Blade 1 Z force, node 42, N
        127    6.761E+03                                 F               0         Blade 1 X force, node 43, N
        128    7.538E+01                                 F               0         Blade 1 Y force, node 43, N
        129   -2.140E+03                                 F               0         Blade 1 Z force, node 43, N
        130    6.956E+03                                 F               0         Blade 1 X force, node 44, N
        131    7.329E+01                                 F               0         Blade 1 Y force, node 44, N
        132   -2.183E+03                                 F               0         Blade 1 Z force, node 44, N
        133    7.041E+03                                 F               0         Blade 1 X force, node 45, N
        134    7.000E+01                                 F               0         Blade 1 Y force, node 45, N
        135   -2.192E+03                                 F               0         Blade 1 Z force, node 45, N
        136    7.236E+03                                 F               0         Blade 1 X force, node 46, N
        137    6.783E+01                                 F               0         Blade 1 Y force, node 46, N
        138   -2.235E+03                                 F               0         Blade 1 Z force, node 46, N
        139    8.693E+03                                 F               0         Blade 1 X force, node 47, N
        140    7.644E+01                                 F               0         Blade 1 Y force, node 47, N
        141   -2.664E+03                                 F               0         Blade 1 Z force, node 47, N
        142    6.252E+03                                 F               0         Blade 1 X force, node 48, N
        143    5.149E+01                                 F               0         Blade 1 Y force, node 48, N
        144   -1.901E+03                                 F               0         Blade 1 Z force, node 48, N
        145    7.708E+03                                 F               0         Blade 1 X force, node 49, N
        146    5.998E+01                                 F               0         Blade 1 Y force, node 49, N
        147   -2.329E+03                                 F               0         Blade 1 Z force, node 49, N
        148    6.612E+03                                 F               0         Blade 1 X force, node 50, N
        149    4.851E+01                                 F               0         Blade 1 Y force, node 50, N
        150   -1.985E+03                                 F               0         Blade 1 Z force, node 50, N
        151    9.274E+03                                 F               0         Blade 1 X force, node 51, N
        152    6.341E+01                                 F               0         Blade 1 Y force, node 51, N
        153   -2.765E+03                                 F               0         Blade 1 Z force, node 51, N
        154    8.180E+03                                 F               0         Blade 1 X force, node 52, N
        155    5.192E+01                                 F               0         Blade 1 Y force, node 52, N
        156   -2.422E+03                                 F               0         Blade 1 Z force, node 52, N
        157    8.338E+03                                 F               0         Blade 1 X force, node 53, N
        158    4.922E+01                                 F               0         Blade 1 Y force, node 53, N
        159   -2.453E+03                                 F               0         Blade 1 Z force, node 53, N
        160    8.590E+03                                 F               0         Blade 1 X force, node 54, N
        161    4.700E+01                                 F               0         Blade 1 Y force, node 54, N
        162   -2.511E+03                                 F               0         Blade 1 Z force, node 54, N
        163    8.560E+03                                 F               0         Blade 1 X force, node 55, N
        164    4.322E+01                                 F               0         Blade 1 Y force, node 55, N
        165   -2.487E+03                                 F               0         Blade 1 Z force, node 55, N
        166    8.810E+03                                 F               0         Blade 1 X force, node 56, N
        167    4.091E+01                                 F               0         Blade 1 Y force, node 56, N
        168   -2.545E+03                                 F               0         Blade 1 Z force, node 56, N
        169    1.059E+04                                 F               0         Blade 1 X force, node 57, N
        170    4.472E+01                                 F               0         Blade 1 Y force, node 57, N
        171   -3.040E+03                                 F               0         Blade 1 Z force, node 57, N
        172    7.499E+03                                 F               0         Blade 1 X force, node 58, N
        173    2.865E+01                                 F               0         Blade 1 Y force, node 58, N
        174   -2.140E+03                                 F               0         Blade 1 Z force, node 58, N
        175    9.280E+03                                 F               0         Blade 1 X force, node 59, N
        176    3.242E+01                                 F               0         Blade 1 Y force, node 59, N
        177   -2.635E+03                                 F               0         Blade 1 Z force, node 59, N
        178    7.991E+03                                 F               0         Blade 1 X force, node 60, N
        179    2.532E+01                                 F               0         Blade 1 Y force, node 60, N
        180   -2.258E+03                                 F               0         Blade 1 Z force, node 60, N
        181    1.104E+04                                 F               0         Blade 1 X force, node 61, N
        182    3.092E+01                                 F               0         Blade 1 Y force, node 61, N
        183   -3.102E+03                                 F               0         Blade 1 Z force, node 61, N
        184    9.746E+03                                 F               0         Blade 1 X force, node 62, N
        185    2.372E+01                                 F               0         Blade 1 Y force, node 62, N
        186   -2.723E+03                                 F               0         Blade 1 Z force, node 62, N
        187    9.899E+03                                 F               0         Blade 1 X force, node 63, N
        188    2.075E+01                                 F               0         Blade 1 Y force, node 63, N
        189   -2.752E+03                                 F               0         Blade 1 Z force, node 63, N
        190    1.022E+04                                 F               0         Blade 1 X force, node 64, N
        191    1.808E+01                                 F               0         Blade 1 Y force, node 64, N
        192   -2.828E+03                                 F               0         Blade 1 Z force, node 64, N
        193    1.004E+04                                 F               0         Blade 1 X force, node 65, N
        194    1.462E+01                                 F               0         Blade 1 Y force, node 65, N
        195   -2.765E+03                                 F               0         Blade 1 Z force, node 65, N
        196    1.037E+04                                 F               0         Blade 1 X force, node 66, N
        197    1.201E+01                                 F               0         Blade 1 Y force, node 66, N