
Linearized model: Predictions were generated on 31-Jan-2024 at 12:35:17 using OpenFAST, compiled as a 64-bit application using single precision at commit v3.5.1
 linked with  NWTC Subroutine Library; ElastoDyn; InflowWind; AeroDyn; ServoDyn; HydroDyn; MAP++ (<1.20.10>, <Oct-20-2023>)

Description from the FAST input file: CCT-9 Campign 4 model. Input files to be run with OpenFAST 3.5.0. GitHub branch from Lu Wang (https://github.com/luwang00/openfast/tree/dev) compiled on March 7, 2023.

Simulation information:
   Simulation time:                   501.2500 s
   Rotor Speed:                         0.8936 rad/s
   Azimuth:                             1.8632 rad
   Wind Speed:                         10.0000 m/s
   Number of continuous states:        12
   Number of discrete states:           0
   Number of constraint states:         0
   Number of inputs:                 3988
   Number of outputs:                  36
   Jacobians included in this file?    No

Order of continuous states:
   Row/Column Operating Point                     Rotating Frame? Derivative Order Description
   ---------- ---------------                     --------------- ---------------- -----------
          1    8.172E+00                                 F               2         ED Platform horizontal surge translation DOF (internal DOF index = DOF_Sg), m
          2   -5.102E-02                                 F               2         ED Platform vertical heave translation DOF (internal DOF index = DOF_Hv), m
          3    7.091E-03                                 F               2         ED Platform yaw rotation DOF (internal DOF index = DOF_Y), rad
          4    3.855E-01                                 F               2         ED 1st tower fore-aft bending mode DOF (internal DOF index = DOF_TFA1), m
          5    1.284E-03                                 F               2         ED 2nd tower fore-aft bending mode DOF (internal DOF index = DOF_TFA2), m
          6    2.924E-01                                 F               2         ED Variable speed generator DOF (internal DOF index = DOF_GeAz), rad
          7   -2.574E-04                                 F               2         ED First time derivative of Platform horizontal surge translation DOF (internal DOF index = DOF_Sg), m/s
          8   -1.827E-03                                 F               2         ED First time derivative of Platform vertical heave translation DOF (internal DOF index = DOF_Hv), m/s
          9   -8.643E-07                                 F               2         ED First time derivative of Platform yaw rotation DOF (internal DOF index = DOF_Y), rad/s
         10   -4.069E-04                                 F               2         ED First time derivative of 1st tower fore-aft bending mode DOF (internal DOF index = DOF_TFA1), m/s
         11    2.583E-06                                 F               2         ED First time derivative of 2nd tower fore-aft bending mode DOF (internal DOF index = DOF_TFA2), m/s
         12    8.936E-01                                 F               2         ED First time derivative of Variable speed generator DOF (internal DOF index = DOF_GeAz), rad/s

Order of continuous state derivatives:
   Row/Column Operating Point                     Rotating Frame? Derivative Order Description
   ---------- ---------------                     --------------- ---------------- -----------
          1   -2.574E-04                                 F               2         First time derivative of ED Platform horizontal surge translation DOF (internal DOF index = DOF_Sg), m/s
          2   -1.827E-03                                 F               2         First time derivative of ED Platform vertical heave translation DOF (internal DOF index = DOF_Hv), m/s
          3   -8.643E-07                                 F               2         First time derivative of ED Platform yaw rotation DOF (internal DOF index = DOF_Y), rad/s
          4   -4.069E-04                                 F               2         First time derivative of ED 1st tower fore-aft bending mode DOF (internal DOF index = DOF_TFA1), m/s
          5    2.583E-06                                 F               2         First time derivative of ED 2nd tower fore-aft bending mode DOF (internal DOF index = DOF_TFA2), m/s
          6    8.936E-01                                 F               2         First time derivative of ED Variable speed generator DOF (internal DOF index = DOF_GeAz), rad/s
          7   -3.633E-04                                 F               2         First time derivative of ED First time derivative of Platform horizontal surge translation DOF (internal DOF index = DOF_Sg), m/s/s
          8   -2.276E-03                                 F               2         First time derivative of ED First time derivative of Platform vertical heave translation DOF (internal DOF index = DOF_Hv), m/s/s
          9    2.889E-06                                 F               2         First time derivative of ED First time derivative of Platform yaw rotation DOF (internal DOF index = DOF_Y), rad/s/s
         10   -4.103E-04                                 F               2         First time derivative of ED First time derivative of 1st tower fore-aft bending mode DOF (internal DOF index = DOF_TFA1), m/s/s
         11    6.110E-06                                 F               2         First time derivative of ED First time derivative of 2nd tower fore-aft bending mode DOF (internal DOF index = DOF_TFA2), m/s/s
         12    1.568E-04                                 F               2         First time derivative of ED First time derivative of Variable speed generator DOF (internal DOF index = DOF_GeAz), rad/s/s

Order of inputs:
     Column   Operating Point                     Rotating Frame? Derivative Order Description
   ---------- ---------------                     --------------- ---------------- -----------
          1   -1.080E+01                                 F               0         IfW X-component position of node 1 (hub), m
          2    0.000E+00                                 F               0         IfW Y-component position of node 1 (hub), m
          3    1.497E+02                                 F               0         IfW Z-component position of node 1 (hub), m
          4    4.309E-01                                 F               0         IfW X-component position of node 2 (blade 1, node 1), m
          5   -1.233E+01                                 F               0         IfW Y-component position of node 2 (blade 1, node 1), m
          6    1.479E+02                                 F               0         IfW Z-component position of node 2 (blade 1, node 1), m
          7    3.904E-01                                 F               0         IfW X-component position of node 3 (blade 1, node 2), m
          8   -1.359E+01                                 F               0         IfW Y-component position of node 3 (blade 1, node 2), m
          9    1.475E+02                                 F               0         IfW Z-component position of node 3 (blade 1, node 2), m
         10   -1.603E-01                                 F               0         IfW X-component position of node 4 (blade 1, node 3), m
         11   -3.074E+01                                 F               0         IfW Y-component position of node 4 (blade 1, node 3), m
         12    1.416E+02                                 F               0         IfW Z-component position of node 4 (blade 1, node 3), m
         13   -2.777E-01                                 F               0         IfW X-component position of node 5 (blade 1, node 4), m
         14   -3.439E+01                                 F               0         IfW Y-component position of node 5 (blade 1, node 4), m
         15    1.403E+02                                 F               0         IfW Z-component position of node 5 (blade 1, node 4), m
         16   -3.950E-01                                 F               0         IfW X-component position of node 6 (blade 1, node 5), m
         17   -3.804E+01                                 F               0         IfW Y-component position of node 6 (blade 1, node 5), m
         18    1.390E+02                                 F               0         IfW Z-component position of node 6 (blade 1, node 5), m
         19   -5.124E-01                                 F               0         IfW X-component position of node 7 (blade 1, node 6), m
         20   -4.170E+01                                 F               0         IfW Y-component position of node 7 (blade 1, node 6), m
         21    1.378E+02                                 F               0         IfW Z-component position of node 7 (blade 1, node 6), m
         22   -6.297E-01                                 F               0         IfW X-component position of node 8 (blade 1, node 7), m
         23   -4.535E+01                                 F               0         IfW Y-component position of node 8 (blade 1, node 7), m
         24    1.365E+02                                 F               0         IfW Z-component position of node 8 (blade 1, node 7), m
         25   -7.471E-01                                 F               0         IfW X-component position of node 9 (blade 1, node 8), m
         26   -4.900E+01                                 F               0         IfW Y-component position of node 9 (blade 1, node 8), m
         27    1.353E+02                                 F               0         IfW Z-component position of node 9 (blade 1, node 8), m
         28   -8.644E-01                                 F               0         IfW X-component position of node 10 (blade 1, node 9), m
         29   -5.266E+01                                 F               0         IfW Y-component position of node 10 (blade 1, node 9), m
         30    1.340E+02                                 F               0         IfW Z-component position of node 10 (blade 1, node 9), m
         31   -9.818E-01                                 F               0         IfW X-component position of node 11 (blade 1, node 10), m
         32   -5.631E+01                                 F               0         IfW Y-component position of node 11 (blade 1, node 10), m
         33    1.327E+02                                 F               0         IfW Z-component position of node 11 (blade 1, node 10), m
         34   -1.099E+00                                 F               0         IfW X-component position of node 12 (blade 1, node 11), m
         35   -5.996E+01                                 F               0         IfW Y-component position of node 12 (blade 1, node 11), m
         36    1.315E+02                                 F               0         IfW Z-component position of node 12 (blade 1, node 11), m
         37   -1.216E+00                                 F               0         IfW X-component position of node 13 (blade 1, node 12), m
         38   -6.362E+01                                 F               0         IfW Y-component position of node 13 (blade 1, node 12), m
         39    1.302E+02                                 F               0         IfW Z-component position of node 13 (blade 1, node 12), m
         40   -1.334E+00                                 F               0         IfW X-component position of node 14 (blade 1, node 13), m
         41   -6.727E+01                                 F               0         IfW Y-component position of node 14 (blade 1, node 13), m
         42    1.289E+02                                 F               0         IfW Z-component position of node 14 (blade 1, node 13), m
         43   -1.451E+00                                 F               0         IfW X-component position of node 15 (blade 1, node 14), m
         44   -7.092E+01                                 F               0         IfW Y-component position of node 15 (blade 1, node 14), m
         45    1.277E+02                                 F               0         IfW Z-component position of node 15 (blade 1, node 14), m
         46   -1.569E+00                                 F               0         IfW X-component position of node 16 (blade 1, node 15), m
         47   -7.458E+01                                 F               0         IfW Y-component position of node 16 (blade 1, node 15), m
         48    1.264E+02                                 F               0         IfW Z-component position of node 16 (blade 1, node 15), m
         49   -1.686E+00                                 F               0         IfW X-component position of node 17 (blade 1, node 16), m
         50   -7.823E+01                                 F               0         IfW Y-component position of node 17 (blade 1, node 16), m
         51    1.251E+02                                 F               0         IfW Z-component position of node 17 (blade 1, node 16), m
         52   -1.803E+00                                 F               0         IfW X-component position of node 18 (blade 1, node 17), m
         53   -8.188E+01                                 F               0         IfW Y-component position of node 18 (blade 1, node 17), m
         54    1.239E+02                                 F               0         IfW Z-component position of node 18 (blade 1, node 17), m
         55   -1.921E+00                                 F               0         IfW X-component position of node 19 (blade 1, node 18), m
         56   -8.553E+01                                 F               0         IfW Y-component position of node 19 (blade 1, node 18), m
         57    1.226E+02                                 F               0         IfW Z-component position of node 19 (blade 1, node 18), m
         58   -2.038E+00                                 F               0         IfW X-component position of node 20 (blade 1, node 19), m
         59   -8.919E+01                                 F               0         IfW Y-component position of node 20 (blade 1, node 19), m
         60    1.213E+02                                 F               0         IfW Z-component position of node 20 (blade 1, node 19), m
         61   -2.155E+00                                 F               0         IfW X-component position of node 21 (blade 1, node 20), m
         62   -9.284E+01                                 F               0         IfW Y-component position of node 21 (blade 1, node 20), m
         63    1.201E+02                                 F               0         IfW Z-component position of node 21 (blade 1, node 20), m
         64   -2.273E+00                                 F               0         IfW X-component position of node 22 (blade 1, node 21), m
         65   -9.649E+01                                 F               0         IfW Y-component position of node 22 (blade 1, node 21), m
         66    1.188E+02                                 F               0         IfW Z-component position of node 22 (blade 1, node 21), m
         67   -2.390E+00                                 F               0         IfW X-component position of node 23 (blade 1, node 22), m
         68   -1.001E+02                                 F               0         IfW Y-component position of node 23 (blade 1, node 22), m
         69    1.175E+02                                 F               0         IfW Z-component position of node 23 (blade 1, node 22), m
         70   -2.507E+00                                 F               0         IfW X-component position of node 24 (blade 1, node 23), m
         71   -1.038E+02                                 F               0         IfW Y-component position of node 24 (blade 1, node 23), m
         72    1.163E+02                                 F               0         IfW Z-component position of node 24 (blade 1, node 23), m
         73   -2.625E+00                                 F               0         IfW X-component position of node 25 (blade 1, node 24), m
         74   -1.075E+02                                 F               0         IfW Y-component position of node 25 (blade 1, node 24), m
         75    1.150E+02                                 F               0         IfW Z-component position of node 25 (blade 1, node 24), m
         76   -2.742E+00                                 F               0         IfW X-component position of node 26 (blade 1, node 25), m
         77   -1.111E+02                                 F               0         IfW Y-component position of node 26 (blade 1, node 25), m
         78    1.137E+02                                 F               0         IfW Z-component position of node 26 (blade 1, node 25), m
         79   -2.859E+00                                 F               0         IfW X-component position of node 27 (blade 1, node 26), m
         80   -1.148E+02                                 F               0         IfW Y-component position of node 27 (blade 1, node 26), m
         81    1.125E+02                                 F               0         IfW Z-component position of node 27 (blade 1, node 26), m
         82   -2.977E+00                                 F               0         IfW X-component position of node 28 (blade 1, node 27), m
         83   -1.184E+02                                 F               0         IfW Y-component position of node 28 (blade 1, node 27), m
         84    1.112E+02                                 F               0         IfW Z-component position of node 28 (blade 1, node 27), m
         85   -3.076E+00                                 F               0         IfW X-component position of node 29 (blade 1, node 28), m
         86   -1.215E+02                                 F               0         IfW Y-component position of node 29 (blade 1, node 28), m
         87    1.101E+02                                 F               0         IfW Z-component position of node 29 (blade 1, node 28), m
         88    8.830E-02                                 F               0         IfW X-component position of node 30 (blade 2, node 1), m
         89   -2.909E+00                                 F               0         IfW Y-component position of node 30 (blade 2, node 1), m
         90    1.462E+02                                 F               0         IfW Z-component position of node 30 (blade 2, node 1), m
         91   -3.476E-02                                 F               0         IfW X-component position of node 31 (blade 2, node 2), m
         92   -1.899E+00                                 F               0         IfW Y-component position of node 31 (blade 2, node 2), m
         93    1.453E+02                                 F               0         IfW Z-component position of node 31 (blade 2, node 2), m
         94   -1.708E+00                                 F               0         IfW X-component position of node 32 (blade 2, node 3), m
         95    1.183E+01                                 F               0         IfW Y-component position of node 32 (blade 2, node 3), m
         96    1.336E+02                                 F               0         IfW Z-component position of node 32 (blade 2, node 3), m
         97   -2.065E+00                                 F               0         IfW X-component position of node 33 (blade 2, node 4), m
         98    1.476E+01                                 F               0         IfW Y-component position of node 33 (blade 2, node 4), m
         99    1.311E+02                                 F               0         IfW Z-component position of node 33 (blade 2, node 4), m
        100   -2.421E+00                                 F               0         IfW X-component position of node 34 (blade 2, node 5), m
        101    1.769E+01                                 F               0         IfW Y-component position of node 34 (blade 2, node 5), m
        102    1.285E+02                                 F               0         IfW Z-component position of node 34 (blade 2, node 5), m
        103   -2.778E+00                                 F               0         IfW X-component position of node 35 (blade 2, node 6), m
        104    2.061E+01                                 F               0         IfW Y-component position of node 35 (blade 2, node 6), m
        105    1.260E+02                                 F               0         IfW Z-component position of node 35 (blade 2, node 6), m
        106   -3.134E+00                                 F               0         IfW X-component position of node 36 (blade 2, node 7), m
        107    2.354E+01                                 F               0         IfW Y-component position of node 36 (blade 2, node 7), m
        108    1.235E+02                                 F               0         IfW Z-component position of node 36 (blade 2, node 7), m
        109   -3.491E+00                                 F               0         IfW X-component position of node 37 (blade 2, node 8), m
        110    2.646E+01                                 F               0         IfW Y-component position of node 37 (blade 2, node 8), m
        111    1.210E+02                                 F               0         IfW Z-component position of node 37 (blade 2, node 8), m
        112   -3.848E+00                                 F               0         IfW X-component position of node 38 (blade 2, node 9), m
        113    2.939E+01                                 F               0         IfW Y-component position of node 38 (blade 2, node 9), m
        114    1.185E+02                                 F               0         IfW Z-component position of node 38 (blade 2, node 9), m
        115   -4.204E+00                                 F               0         IfW X-component position of node 39 (blade 2, node 10), m
        116    3.232E+01                                 F               0         IfW Y-component position of node 39 (blade 2, node 10), m
        117    1.160E+02                                 F               0         IfW Z-component position of node 39 (blade 2, node 10), m
        118   -4.561E+00                                 F               0         IfW X-component position of node 40 (blade 2, node 11), m
        119    3.524E+01                                 F               0         IfW Y-component position of node 40 (blade 2, node 11), m
        120    1.135E+02                                 F               0         IfW Z-component position of node 40 (blade 2, node 11), m
        121   -4.917E+00                                 F               0         IfW X-component position of node 41 (blade 2, node 12), m
        122    3.817E+01                                 F               0         IfW Y-component position of node 41 (blade 2, node 12), m
        123    1.110E+02                                 F               0         IfW Z-component position of node 41 (blade 2, node 12), m
        124   -5.274E+00                                 F               0         IfW X-component position of node 42 (blade 2, node 13), m
        125    4.109E+01                                 F               0         IfW Y-component position of node 42 (blade 2, node 13), m
        126    1.085E+02                                 F               0         IfW Z-component position of node 42 (blade 2, node 13), m
        127   -5.630E+00                                 F               0         IfW X-component position of node 43 (blade 2, node 14), m
        128    4.402E+01                                 F               0         IfW Y-component position of node 43 (blade 2, node 14), m
        129    1.060E+02                                 F               0         IfW Z-component position of node 43 (blade 2, node 14), m
        130   -5.987E+00                                 F               0         IfW X-component position of node 44 (blade 2, node 15), m
        131    4.695E+01                                 F               0         IfW Y-component position of node 44 (blade 2, node 15), m
        132    1.035E+02                                 F               0         IfW Z-component position of node 44 (blade 2, node 15), m
        133   -6.343E+00                                 F               0         IfW X-component position of node 45 (blade 2, node 16), m
        134    4.987E+01                                 F               0         IfW Y-component position of node 45 (blade 2, node 16), m
        135    1.010E+02                                 F               0         IfW Z-component position of node 45 (blade 2, node 16), m
        136   -6.700E+00                                 F               0         IfW X-component position of node 46 (blade 2, node 17), m
        137    5.280E+01                                 F               0         IfW Y-component position of node 46 (blade 2, node 17), m
        138    9.850E+01                                 F               0         IfW Z-component position of node 46 (blade 2, node 17), m
        139   -7.056E+00                                 F               0         IfW X-component position of node 47 (blade 2, node 18), m
        140    5.572E+01                                 F               0         IfW Y-component position of node 47 (blade 2, node 18), m
        141    9.600E+01                                 F               0         IfW Z-component position of node 47 (blade 2, node 18), m
        142   -7.413E+00                                 F               0         IfW X-component position of node 48 (blade 2, node 19), m
        143    5.865E+01                                 F               0         IfW Y-component position of node 48 (blade 2, node 19), m
        144    9.349E+01                                 F               0         IfW Z-component position of node 48 (blade 2, node 19), m
        145   -7.770E+00                                 F               0         IfW X-component position of node 49 (blade 2, node 20), m
        146    6.158E+01                                 F               0         IfW Y-component position of node 49 (blade 2, node 20), m
        147    9.099E+01                                 F               0         IfW Z-component position of node 49 (blade 2, node 20), m
        148   -8.126E+00                                 F               0         IfW X-component position of node 50 (blade 2, node 21), m
        149    6.450E+01                                 F               0         IfW Y-component position of node 50 (blade 2, node 21), m
        150    8.848E+01                                 F               0         IfW Z-component position of node 50 (blade 2, node 21), m
        151   -8.483E+00                                 F               0         IfW X-component position of node 51 (blade 2, node 22), m
        152    6.743E+01                                 F               0         IfW Y-component position of node 51 (blade 2, node 22), m
        153    8.598E+01                                 F               0         IfW Z-component position of node 51 (blade 2, node 22), m
        154   -8.839E+00                                 F               0         IfW X-component position of node 52 (blade 2, node 23), m
        155    7.035E+01                                 F               0         IfW Y-component position of node 52 (blade 2, node 23), m
        156    8.348E+01                                 F               0         IfW Z-component position of node 52 (blade 2, node 23), m
        157   -9.196E+00                                 F               0         IfW X-component position of node 53 (blade 2, node 24), m
        158    7.328E+01                                 F               0         IfW Y-component position of node 53 (blade 2, node 24), m
        159    8.097E+01                                 F               0         IfW Z-component position of node 53 (blade 2, node 24), m
        160   -9.552E+00                                 F               0         IfW X-component position of node 54 (blade 2, node 25), m
        161    7.621E+01                                 F               0         IfW Y-component position of node 54 (blade 2, node 25), m
        162    7.847E+01                                 F               0         IfW Z-component position of node 54 (blade 2, node 25), m
        163   -9.909E+00                                 F               0         IfW X-component position of node 55 (blade 2, node 26), m
        164    7.913E+01                                 F               0         IfW Y-component position of node 55 (blade 2, node 26), m
        165    7.596E+01                                 F               0         IfW Z-component position of node 55 (blade 2, node 26), m
        166   -1.027E+01                                 F               0         IfW X-component position of node 56 (blade 2, node 27), m
        167    8.206E+01                                 F               0         IfW Y-component position of node 56 (blade 2, node 27), m
        168    7.346E+01                                 F               0         IfW Z-component position of node 56 (blade 2, node 27), m
        169   -1.057E+01                                 F               0         IfW X-component position of node 57 (blade 2, node 28), m
        170    8.454E+01                                 F               0         IfW Y-component position of node 57 (blade 2, node 28), m
        171    7.134E+01                                 F               0         IfW Z-component position of node 57 (blade 2, node 28), m