
Linearized model: Predictions were generated on 06-Feb-2024 at 16:18:08 using OpenFAST, compiled as a 64-bit application using single precision at commit v3.5.1
 linked with  NWTC Subroutine Library; ElastoDyn; InflowWind; AeroDyn; ServoDyn; HydroDyn; MAP++ (<1.20.10>, <Oct-20-2023>)

Description from the FAST input file: CCT-9 Campign 4 model. Input files to be run with OpenFAST 3.5.0. GitHub branch from Lu Wang (https://github.com/luwang00/openfast/tree/dev) compiled on March 7, 2023.

Simulation information:
   Simulation time:                  1008.2000 s
   Rotor Speed:                         1.0421 rad/s
   Azimuth:                             3.7614 rad
   Wind Speed:                         12.0000 m/s
   Number of continuous states:        18
   Number of discrete states:           0
   Number of constraint states:         0
   Number of inputs:                 3988
   Number of outputs:                  36
   Jacobians included in this file?    No

Order of continuous states:
   Row/Column Operating Point                     Rotating Frame? Derivative Order Description
   ---------- ---------------                     --------------- ---------------- -----------
          1    1.231E+01                                 F               2         ED Platform horizontal surge translation DOF (internal DOF index = DOF_Sg), m
          2   -2.399E-01                                 F               2         ED Platform vertical heave translation DOF (internal DOF index = DOF_Hv), m
          3    4.692E-02                                 F               2         ED Platform roll tilt rotation DOF (internal DOF index = DOF_R), rad
          4    1.559E-01                                 F               2         ED Platform pitch tilt rotation DOF (internal DOF index = DOF_P), rad
          5    1.079E+00                                 F               2         ED 1st tower fore-aft bending mode DOF (internal DOF index = DOF_TFA1), m
          6    1.767E-01                                 F               2         ED 1st tower side-to-side bending mode DOF (internal DOF index = DOF_TSS1), m
          7    1.610E-03                                 F               2         ED 2nd tower fore-aft bending mode DOF (internal DOF index = DOF_TFA2), m
          8    7.700E-05                                 F               2         ED 2nd tower side-to-side bending mode DOF (internal DOF index = DOF_TSS2), m
          9    2.191E+00                                 F               2         ED Variable speed generator DOF (internal DOF index = DOF_GeAz), rad
         10    1.675E-04                                 F               2         ED First time derivative of Platform horizontal surge translation DOF (internal DOF index = DOF_Sg), m/s
         11    4.971E-03                                 F               2         ED First time derivative of Platform vertical heave translation DOF (internal DOF index = DOF_Hv), m/s
         12    4.170E-05                                 F               2         ED First time derivative of Platform roll tilt rotation DOF (internal DOF index = DOF_R), rad/s
         13    8.506E-06                                 F               2         ED First time derivative of Platform pitch tilt rotation DOF (internal DOF index = DOF_P), rad/s
         14    3.790E-04                                 F               2         ED First time derivative of 1st tower fore-aft bending mode DOF (internal DOF index = DOF_TFA1), m/s
         15   -2.022E-03                                 F               2         ED First time derivative of 1st tower side-to-side bending mode DOF (internal DOF index = DOF_TSS1), m/s
         16    3.498E-06                                 F               2         ED First time derivative of 2nd tower fore-aft bending mode DOF (internal DOF index = DOF_TFA2), m/s
         17    3.837E-07                                 F               2         ED First time derivative of 2nd tower side-to-side bending mode DOF (internal DOF index = DOF_TSS2), m/s
         18    1.042E+00                                 F               2         ED First time derivative of Variable speed generator DOF (internal DOF index = DOF_GeAz), rad/s

Order of continuous state derivatives:
   Row/Column Operating Point                     Rotating Frame? Derivative Order Description
   ---------- ---------------                     --------------- ---------------- -----------
          1    1.675E-04                                 F               2         First time derivative of ED Platform horizontal surge translation DOF (internal DOF index = DOF_Sg), m/s
          2    4.971E-03                                 F               2         First time derivative of ED Platform vertical heave translation DOF (internal DOF index = DOF_Hv), m/s
          3    4.170E-05                                 F               2         First time derivative of ED Platform roll tilt rotation DOF (internal DOF index = DOF_R), rad/s
          4    8.506E-06                                 F               2         First time derivative of ED Platform pitch tilt rotation DOF (internal DOF index = DOF_P), rad/s
          5    3.790E-04                                 F               2         First time derivative of ED 1st tower fore-aft bending mode DOF (internal DOF index = DOF_TFA1), m/s
          6   -2.022E-03                                 F               2         First time derivative of ED 1st tower side-to-side bending mode DOF (internal DOF index = DOF_TSS1), m/s
          7    3.498E-06                                 F               2         First time derivative of ED 2nd tower fore-aft bending mode DOF (internal DOF index = DOF_TFA2), m/s
          8    3.837E-07                                 F               2         First time derivative of ED 2nd tower side-to-side bending mode DOF (internal DOF index = DOF_TSS2), m/s
          9    1.042E+00                                 F               2         First time derivative of ED Variable speed generator DOF (internal DOF index = DOF_GeAz), rad/s
         10   -5.577E-04                                 F               2         First time derivative of ED First time derivative of Platform horizontal surge translation DOF (internal DOF index = DOF_Sg), m/s/s
         11   -5.256E-04                                 F               2         First time derivative of ED First time derivative of Platform vertical heave translation DOF (internal DOF index = DOF_Hv), m/s/s
         12    2.245E-05                                 F               2         First time derivative of ED First time derivative of Platform roll tilt rotation DOF (internal DOF index = DOF_R), rad/s/s
         13   -2.967E-05                                 F               2         First time derivative of ED First time derivative of Platform pitch tilt rotation DOF (internal DOF index = DOF_P), rad/s/s
         14    6.292E-03                                 F               2         First time derivative of ED First time derivative of 1st tower fore-aft bending mode DOF (internal DOF index = DOF_TFA1), m/s/s
         15   -1.098E-03                                 F               2         First time derivative of ED First time derivative of 1st tower side-to-side bending mode DOF (internal DOF index = DOF_TSS1), m/s/s
         16    2.926E-05                                 F               2         First time derivative of ED First time derivative of 2nd tower fore-aft bending mode DOF (internal DOF index = DOF_TFA2), m/s/s
         17   -3.760E-07                                 F               2         First time derivative of ED First time derivative of 2nd tower side-to-side bending mode DOF (internal DOF index = DOF_TSS2), m/s/s
         18    5.133E-05                                 F               2         First time derivative of ED First time derivative of Variable speed generator DOF (internal DOF index = DOF_GeAz), rad/s/s

Order of inputs:
     Column   Operating Point                     Rotating Frame? Derivative Order Description
   ---------- ---------------                     --------------- ---------------- -----------
          1   -1.080E+01                                 F               0         IfW X-component position of node 1 (hub), m
          2    0.000E+00                                 F               0         IfW Y-component position of node 1 (hub), m
          3    1.497E+02                                 F               0         IfW Z-component position of node 1 (hub), m
          4    2.467E+01                                 F               0         IfW X-component position of node 2 (blade 1, node 1), m
          5   -4.312E+00                                 F               0         IfW Y-component position of node 2 (blade 1, node 1), m
          6    1.450E+02                                 F               0         IfW Z-component position of node 2 (blade 1, node 1), m
          7    2.438E+01                                 F               0         IfW X-component position of node 3 (blade 1, node 2), m
          8   -3.484E+00                                 F               0         IfW Y-component position of node 3 (blade 1, node 2), m
          9    1.440E+02                                 F               0         IfW Z-component position of node 3 (blade 1, node 2), m
         10    2.053E+01                                 F               0         IfW X-component position of node 4 (blade 1, node 3), m
         11    7.774E+00                                 F               0         IfW Y-component position of node 4 (blade 1, node 3), m
         12    1.303E+02                                 F               0         IfW Z-component position of node 4 (blade 1, node 3), m
         13    1.971E+01                                 F               0         IfW X-component position of node 5 (blade 1, node 4), m
         14    1.017E+01                                 F               0         IfW Y-component position of node 5 (blade 1, node 4), m
         15    1.273E+02                                 F               0         IfW Z-component position of node 5 (blade 1, node 4), m
         16    1.889E+01                                 F               0         IfW X-component position of node 6 (blade 1, node 5), m
         17    1.257E+01                                 F               0         IfW Y-component position of node 6 (blade 1, node 5), m
         18    1.244E+02                                 F               0         IfW Z-component position of node 6 (blade 1, node 5), m
         19    1.807E+01                                 F               0         IfW X-component position of node 7 (blade 1, node 6), m
         20    1.497E+01                                 F               0         IfW Y-component position of node 7 (blade 1, node 6), m
         21    1.215E+02                                 F               0         IfW Z-component position of node 7 (blade 1, node 6), m
         22    1.725E+01                                 F               0         IfW X-component position of node 8 (blade 1, node 7), m
         23    1.737E+01                                 F               0         IfW Y-component position of node 8 (blade 1, node 7), m
         24    1.186E+02                                 F               0         IfW Z-component position of node 8 (blade 1, node 7), m
         25    1.643E+01                                 F               0         IfW X-component position of node 9 (blade 1, node 8), m
         26    1.977E+01                                 F               0         IfW Y-component position of node 9 (blade 1, node 8), m
         27    1.156E+02                                 F               0         IfW Z-component position of node 9 (blade 1, node 8), m
         28    1.561E+01                                 F               0         IfW X-component position of node 10 (blade 1, node 9), m
         29    2.216E+01                                 F               0         IfW Y-component position of node 10 (blade 1, node 9), m
         30    1.127E+02                                 F               0         IfW Z-component position of node 10 (blade 1, node 9), m
         31    1.479E+01                                 F               0         IfW X-component position of node 11 (blade 1, node 10), m
         32    2.456E+01                                 F               0         IfW Y-component position of node 11 (blade 1, node 10), m
         33    1.098E+02                                 F               0         IfW Z-component position of node 11 (blade 1, node 10), m
         34    1.397E+01                                 F               0         IfW X-component position of node 12 (blade 1, node 11), m
         35    2.696E+01                                 F               0         IfW Y-component position of node 12 (blade 1, node 11), m
         36    1.069E+02                                 F               0         IfW Z-component position of node 12 (blade 1, node 11), m
         37    1.315E+01                                 F               0         IfW X-component position of node 13 (blade 1, node 12), m
         38    2.936E+01                                 F               0         IfW Y-component position of node 13 (blade 1, node 12), m
         39    1.040E+02                                 F               0         IfW Z-component position of node 13 (blade 1, node 12), m
         40    1.233E+01                                 F               0         IfW X-component position of node 14 (blade 1, node 13), m
         41    3.176E+01                                 F               0         IfW Y-component position of node 14 (blade 1, node 13), m
         42    1.010E+02                                 F               0         IfW Z-component position of node 14 (blade 1, node 13), m
         43    1.151E+01                                 F               0         IfW X-component position of node 15 (blade 1, node 14), m
         44    3.416E+01                                 F               0         IfW Y-component position of node 15 (blade 1, node 14), m
         45    9.812E+01                                 F               0         IfW Z-component position of node 15 (blade 1, node 14), m
         46    1.069E+01                                 F               0         IfW X-component position of node 16 (blade 1, node 15), m
         47    3.656E+01                                 F               0         IfW Y-component position of node 16 (blade 1, node 15), m
         48    9.520E+01                                 F               0         IfW Z-component position of node 16 (blade 1, node 15), m
         49    9.868E+00                                 F               0         IfW X-component position of node 17 (blade 1, node 16), m
         50    3.895E+01                                 F               0         IfW Y-component position of node 17 (blade 1, node 16), m
         51    9.228E+01                                 F               0         IfW Z-component position of node 17 (blade 1, node 16), m
         52    9.047E+00                                 F               0         IfW X-component position of node 18 (blade 1, node 17), m
         53    4.135E+01                                 F               0         IfW Y-component position of node 18 (blade 1, node 17), m
         54    8.936E+01                                 F               0         IfW Z-component position of node 18 (blade 1, node 17), m
         55    8.227E+00                                 F               0         IfW X-component position of node 19 (blade 1, node 18), m
         56    4.375E+01                                 F               0         IfW Y-component position of node 19 (blade 1, node 18), m
         57    8.644E+01                                 F               0         IfW Z-component position of node 19 (blade 1, node 18), m
         58    7.406E+00                                 F               0         IfW X-component position of node 20 (blade 1, node 19), m
         59    4.615E+01                                 F               0         IfW Y-component position of node 20 (blade 1, node 19), m
         60    8.352E+01                                 F               0         IfW Z-component position of node 20 (blade 1, node 19), m
         61    6.586E+00                                 F               0         IfW X-component position of node 21 (blade 1, node 20), m
         62    4.855E+01                                 F               0         IfW Y-component position of node 21 (blade 1, node 20), m
         63    8.060E+01                                 F               0         IfW Z-component position of node 21 (blade 1, node 20), m
         64    5.766E+00                                 F               0         IfW X-component position of node 22 (blade 1, node 21), m
         65    5.095E+01                                 F               0         IfW Y-component position of node 22 (blade 1, node 21), m
         66    7.768E+01                                 F               0         IfW Z-component position of node 22 (blade 1, node 21), m
         67    4.945E+00                                 F               0         IfW X-component position of node 23 (blade 1, node 22), m
         68    5.335E+01                                 F               0         IfW Y-component position of node 23 (blade 1, node 22), m
         69    7.475E+01                                 F               0         IfW Z-component position of node 23 (blade 1, node 22), m
         70    4.125E+00                                 F               0         IfW X-component position of node 24 (blade 1, node 23), m
         71    5.574E+01                                 F               0         IfW Y-component position of node 24 (blade 1, node 23), m
         72    7.183E+01                                 F               0         IfW Z-component position of node 24 (blade 1, node 23), m
         73    3.305E+00                                 F               0         IfW X-component position of node 25 (blade 1, node 24), m
         74    5.814E+01                                 F               0         IfW Y-component position of node 25 (blade 1, node 24), m
         75    6.891E+01                                 F               0         IfW Z-component position of node 25 (blade 1, node 24), m
         76    2.484E+00                                 F               0         IfW X-component position of node 26 (blade 1, node 25), m
         77    6.054E+01                                 F               0         IfW Y-component position of node 26 (blade 1, node 25), m
         78    6.599E+01                                 F               0         IfW Z-component position of node 26 (blade 1, node 25), m
         79    1.664E+00                                 F               0         IfW X-component position of node 27 (blade 1, node 26), m
         80    6.294E+01                                 F               0         IfW Y-component position of node 27 (blade 1, node 26), m
         81    6.307E+01                                 F               0         IfW Z-component position of node 27 (blade 1, node 26), m
         82    8.435E-01                                 F               0         IfW X-component position of node 28 (blade 1, node 27), m
         83    6.534E+01                                 F               0         IfW Y-component position of node 28 (blade 1, node 27), m
         84    6.015E+01                                 F               0         IfW Z-component position of node 28 (blade 1, node 27), m
         85    1.480E-01                                 F               0         IfW X-component position of node 29 (blade 1, node 28), m
         86    6.737E+01                                 F               0         IfW Y-component position of node 29 (blade 1, node 28), m
         87    5.767E+01                                 F               0         IfW Z-component position of node 29 (blade 1, node 28), m
         88    2.722E+01                                 F               0         IfW X-component position of node 30 (blade 2, node 1), m
         89   -5.701E+00                                 F               0         IfW Y-component position of node 30 (blade 2, node 1), m
         90    1.541E+02                                 F               0         IfW Z-component position of node 30 (blade 2, node 1), m
         91    2.755E+01                                 F               0         IfW X-component position of node 31 (blade 2, node 2), m
         92   -5.208E+00                                 F               0         IfW Y-component position of node 31 (blade 2, node 2), m
         93    1.553E+02                                 F               0         IfW Z-component position of node 31 (blade 2, node 2), m
         94    3.207E+01                                 F               0         IfW X-component position of node 32 (blade 2, node 3), m
         95    1.496E+00                                 F               0         IfW Y-component position of node 32 (blade 2, node 3), m
         96    1.716E+02                                 F               0         IfW Z-component position of node 32 (blade 2, node 3), m
         97    3.303E+01                                 F               0         IfW X-component position of node 33 (blade 2, node 4), m
         98    2.924E+00                                 F               0         IfW Y-component position of node 33 (blade 2, node 4), m
         99    1.750E+02                                 F               0         IfW Z-component position of node 33 (blade 2, node 4), m
        100    3.400E+01                                 F               0         IfW X-component position of node 34 (blade 2, node 5), m
        101    4.352E+00                                 F               0         IfW Y-component position of node 34 (blade 2, node 5), m
        102    1.785E+02                                 F               0         IfW Z-component position of node 34 (blade 2, node 5), m
        103    3.496E+01                                 F               0         IfW X-component position of node 35 (blade 2, node 6), m
        104    5.781E+00                                 F               0         IfW Y-component position of node 35 (blade 2, node 6), m
        105    1.820E+02                                 F               0         IfW Z-component position of node 35 (blade 2, node 6), m
        106    3.592E+01                                 F               0         IfW X-component position of node 36 (blade 2, node 7), m
        107    7.209E+00                                 F               0         IfW Y-component position of node 36 (blade 2, node 7), m
        108    1.854E+02                                 F               0         IfW Z-component position of node 36 (blade 2, node 7), m
        109    3.688E+01                                 F               0         IfW X-component position of node 37 (blade 2, node 8), m
        110    8.637E+00                                 F               0         IfW Y-component position of node 37 (blade 2, node 8), m
        111    1.889E+02                                 F               0         IfW Z-component position of node 37 (blade 2, node 8), m
        112    3.785E+01                                 F               0         IfW X-component position of node 38 (blade 2, node 9), m
        113    1.007E+01                                 F               0         IfW Y-component position of node 38 (blade 2, node 9), m
        114    1.923E+02                                 F               0         IfW Z-component position of node 38 (blade 2, node 9), m
        115    3.881E+01                                 F               0         IfW X-component position of node 39 (blade 2, node 10), m
        116    1.149E+01                                 F               0         IfW Y-component position of node 39 (blade 2, node 10), m
        117    1.958E+02                                 F               0         IfW Z-component position of node 39 (blade 2, node 10), m
        118    3.977E+01                                 F               0         IfW X-component position of node 40 (blade 2, node 11), m
        119    1.292E+01                                 F               0         IfW Y-component position of node 40 (blade 2, node 11), m
        120    1.993E+02                                 F               0         IfW Z-component position of node 40 (blade 2, node 11), m
        121    4.073E+01                                 F               0         IfW X-component position of node 41 (blade 2, node 12), m
        122    1.435E+01                                 F               0         IfW Y-component position of node 41 (blade 2, node 12), m
        123    2.027E+02                                 F               0         IfW Z-component position of node 41 (blade 2, node 12), m
        124    4.170E+01                                 F               0         IfW X-component position of node 42 (blade 2, node 13), m
        125    1.578E+01                                 F               0         IfW Y-component position of node 42 (blade 2, node 13), m
        126    2.062E+02                                 F               0         IfW Z-component position of node 42 (blade 2, node 13), m
        127    4.266E+01                                 F               0         IfW X-component position of node 43 (blade 2, node 14), m
        128    1.721E+01                                 F               0         IfW Y-component position of node 43 (blade 2, node 14), m
        129    2.097E+02                                 F               0         IfW Z-component position of node 43 (blade 2, node 14), m
        130    4.362E+01                                 F               0         IfW X-component position of node 44 (blade 2, node 15), m
        131    1.864E+01                                 F               0         IfW Y-component position of node 44 (blade 2, node 15), m
        132    2.131E+02                                 F               0         IfW Z-component position of node 44 (blade 2, node 15), m
        133    4.459E+01                                 F               0         IfW X-component position of node 45 (blade 2, node 16), m
        134    2.006E+01                                 F               0         IfW Y-component position of node 45 (blade 2, node 16), m
        135    2.166E+02                                 F               0         IfW Z-component position of node 45 (blade 2, node 16), m
        136    4.555E+01                                 F               0         IfW X-component position of node 46 (blade 2, node 17), m
        137    2.149E+01                                 F               0         IfW Y-component position of node 46 (blade 2, node 17), m
        138    2.200E+02                                 F               0         IfW Z-component position of node 46 (blade 2, node 17), m
        139    4.651E+01                                 F               0         IfW X-component position of node 47 (blade 2, node 18), m
        140    2.292E+01                                 F               0         IfW Y-component position of node 47 (blade 2, node 18), m
        141    2.235E+02                                 F               0         IfW Z-component position of node 47 (blade 2, node 18), m
        142    4.747E+01                                 F               0         IfW X-component position of node 48 (blade 2, node 19), m
        143    2.435E+01                                 F               0         IfW Y-component position of node 48 (blade 2, node 19), m
        144    2.270E+02                                 F               0         IfW Z-component position of node 48 (blade 2, node 19), m
        145    4.844E+01                                 F               0         IfW X-component position of node 49 (blade 2, node 20), m
        146    2.578E+01                                 F               0         IfW Y-component position of node 49 (blade 2, node 20), m
        147    2.304E+02                                 F               0         IfW Z-component position of node 49 (blade 2, node 20), m
        148    4.940E+01                                 F               0         IfW X-component position of node 50 (blade 2, node 21), m
        149    2.721E+01                                 F               0         IfW Y-component position of node 50 (blade 2, node 21), m
        150    2.339E+02                                 F               0         IfW Z-component position of node 50 (blade 2, node 21), m
        151    5.036E+01                                 F               0         IfW X-component position of node 51 (blade 2, node 22), m
        152    2.863E+01                                 F               0         IfW Y-component position of node 51 (blade 2, node 22), m
        153    2.374E+02                                 F               0         IfW Z-component position of node 51 (blade 2, node 22), m
        154    5.132E+01                                 F               0         IfW X-component position of node 52 (blade 2, node 23), m
        155    3.006E+01                                 F               0         IfW Y-component position of node 52 (blade 2, node 23), m