
Linearized model: Predictions were generated on 31-Jan-2024 at 12:35:17 using OpenFAST, compiled as a 64-bit application using single precision at commit v3.5.1
 linked with  NWTC Subroutine Library; ElastoDyn; InflowWind; AeroDyn; ServoDyn; HydroDyn; MAP++ (<1.20.10>, <Oct-20-2023>)

Description from the FAST input file: CCT-9 Campign 4 model. Input files to be run with OpenFAST 3.5.0. GitHub branch from Lu Wang (https://github.com/luwang00/openfast/tree/dev) compiled on March 7, 2023.

Simulation information:
   Simulation time:                   504.4500 s
   Rotor Speed:                         0.8939 rad/s
   Azimuth:                             4.7234 rad
   Wind Speed:                         10.0000 m/s
   Number of continuous states:        12
   Number of discrete states:           0
   Number of constraint states:         0
   Number of inputs:                 3988
   Number of outputs:                  36
   Jacobians included in this file?    No

Order of continuous states:
   Row/Column Operating Point                     Rotating Frame? Derivative Order Description
   ---------- ---------------                     --------------- ---------------- -----------
          1    8.170E+00                                 F               2         ED Platform horizontal surge translation DOF (internal DOF index = DOF_Sg), m
          2   -6.750E-02                                 F               2         ED Platform vertical heave translation DOF (internal DOF index = DOF_Hv), m
          3    7.101E-03                                 F               2         ED Platform yaw rotation DOF (internal DOF index = DOF_Y), rad
          4    3.838E-01                                 F               2         ED 1st tower fore-aft bending mode DOF (internal DOF index = DOF_TFA1), m
          5    1.292E-03                                 F               2         ED 2nd tower fore-aft bending mode DOF (internal DOF index = DOF_TFA2), m
          6    3.153E+00                                 F               2         ED Variable speed generator DOF (internal DOF index = DOF_GeAz), rad
          7   -1.617E-03                                 F               2         ED First time derivative of Platform horizontal surge translation DOF (internal DOF index = DOF_Sg), m/s
          8   -7.804E-03                                 F               2         ED First time derivative of Platform vertical heave translation DOF (internal DOF index = DOF_Hv), m/s
          9    4.050E-06                                 F               2         ED First time derivative of Platform yaw rotation DOF (internal DOF index = DOF_Y), rad/s
         10    2.787E-04                                 F               2         ED First time derivative of 1st tower fore-aft bending mode DOF (internal DOF index = DOF_TFA1), m/s
         11   -2.556E-07                                 F               2         ED First time derivative of 2nd tower fore-aft bending mode DOF (internal DOF index = DOF_TFA2), m/s
         12    8.939E-01                                 F               2         ED First time derivative of Variable speed generator DOF (internal DOF index = DOF_GeAz), rad/s

Order of continuous state derivatives:
   Row/Column Operating Point                     Rotating Frame? Derivative Order Description
   ---------- ---------------                     --------------- ---------------- -----------
          1   -1.617E-03                                 F               2         First time derivative of ED Platform horizontal surge translation DOF (internal DOF index = DOF_Sg), m/s
          2   -7.804E-03                                 F               2         First time derivative of ED Platform vertical heave translation DOF (internal DOF index = DOF_Hv), m/s
          3    4.050E-06                                 F               2         First time derivative of ED Platform yaw rotation DOF (internal DOF index = DOF_Y), rad/s
          4    2.787E-04                                 F               2         First time derivative of ED 1st tower fore-aft bending mode DOF (internal DOF index = DOF_TFA1), m/s
          5   -2.556E-07                                 F               2         First time derivative of ED 2nd tower fore-aft bending mode DOF (internal DOF index = DOF_TFA2), m/s
          6    8.939E-01                                 F               2         First time derivative of ED Variable speed generator DOF (internal DOF index = DOF_GeAz), rad/s
          7   -4.458E-04                                 F               2         First time derivative of ED First time derivative of Platform horizontal surge translation DOF (internal DOF index = DOF_Sg), m/s/s
          8   -9.917E-04                                 F               2         First time derivative of ED First time derivative of Platform vertical heave translation DOF (internal DOF index = DOF_Hv), m/s/s
          9   -1.727E-06                                 F               2         First time derivative of ED First time derivative of Platform yaw rotation DOF (internal DOF index = DOF_Y), rad/s/s
         10    4.363E-04                                 F               2         First time derivative of ED First time derivative of 1st tower fore-aft bending mode DOF (internal DOF index = DOF_TFA1), m/s/s
         11   -3.866E-06                                 F               2         First time derivative of ED First time derivative of 2nd tower fore-aft bending mode DOF (internal DOF index = DOF_TFA2), m/s/s
         12   -8.503E-05                                 F               2         First time derivative of ED First time derivative of Variable speed generator DOF (internal DOF index = DOF_GeAz), rad/s/s

Order of inputs:
     Column   Operating Point                     Rotating Frame? Derivative Order Description
   ---------- ---------------                     --------------- ---------------- -----------
          1   -1.080E+01                                 F               0         IfW X-component position of node 1 (hub), m
          2    0.000E+00                                 F               0         IfW Y-component position of node 1 (hub), m
          3    1.497E+02                                 F               0         IfW Z-component position of node 1 (hub), m
          4    5.650E-01                                 F               0         IfW X-component position of node 2 (blade 1, node 1), m
          5   -1.568E+00                                 F               0         IfW Y-component position of node 2 (blade 1, node 1), m
          6    1.500E+02                                 F               0         IfW Z-component position of node 2 (blade 1, node 1), m
          7    5.580E-01                                 F               0         IfW X-component position of node 3 (blade 1, node 2), m
          8   -2.351E-01                                 F               0         IfW Y-component position of node 3 (blade 1, node 2), m
          9    1.501E+02                                 F               0         IfW Z-component position of node 3 (blade 1, node 2), m
         10    4.620E-01                                 F               0         IfW X-component position of node 4 (blade 1, node 3), m
         11    1.789E+01                                 F               0         IfW Y-component position of node 4 (blade 1, node 3), m
         12    1.511E+02                                 F               0         IfW Z-component position of node 4 (blade 1, node 3), m
         13    4.415E-01                                 F               0         IfW X-component position of node 5 (blade 1, node 4), m
         14    2.175E+01                                 F               0         IfW Y-component position of node 5 (blade 1, node 4), m
         15    1.513E+02                                 F               0         IfW Z-component position of node 5 (blade 1, node 4), m
         16    4.210E-01                                 F               0         IfW X-component position of node 6 (blade 1, node 5), m
         17    2.561E+01                                 F               0         IfW Y-component position of node 6 (blade 1, node 5), m
         18    1.515E+02                                 F               0         IfW Z-component position of node 6 (blade 1, node 5), m
         19    4.006E-01                                 F               0         IfW X-component position of node 7 (blade 1, node 6), m
         20    2.948E+01                                 F               0         IfW Y-component position of node 7 (blade 1, node 6), m
         21    1.517E+02                                 F               0         IfW Z-component position of node 7 (blade 1, node 6), m
         22    3.801E-01                                 F               0         IfW X-component position of node 8 (blade 1, node 7), m
         23    3.334E+01                                 F               0         IfW Y-component position of node 8 (blade 1, node 7), m
         24    1.519E+02                                 F               0         IfW Z-component position of node 8 (blade 1, node 7), m
         25    3.597E-01                                 F               0         IfW X-component position of node 9 (blade 1, node 8), m
         26    3.720E+01                                 F               0         IfW Y-component position of node 9 (blade 1, node 8), m
         27    1.521E+02                                 F               0         IfW Z-component position of node 9 (blade 1, node 8), m
         28    3.392E-01                                 F               0         IfW X-component position of node 10 (blade 1, node 9), m
         29    4.106E+01                                 F               0         IfW Y-component position of node 10 (blade 1, node 9), m
         30    1.524E+02                                 F               0         IfW Z-component position of node 10 (blade 1, node 9), m
         31    3.188E-01                                 F               0         IfW X-component position of node 11 (blade 1, node 10), m
         32    4.492E+01                                 F               0         IfW Y-component position of node 11 (blade 1, node 10), m
         33    1.526E+02                                 F               0         IfW Z-component position of node 11 (blade 1, node 10), m
         34    2.983E-01                                 F               0         IfW X-component position of node 12 (blade 1, node 11), m
         35    4.879E+01                                 F               0         IfW Y-component position of node 12 (blade 1, node 11), m
         36    1.528E+02                                 F               0         IfW Z-component position of node 12 (blade 1, node 11), m
         37    2.779E-01                                 F               0         IfW X-component position of node 13 (blade 1, node 12), m
         38    5.265E+01                                 F               0         IfW Y-component position of node 13 (blade 1, node 12), m
         39    1.530E+02                                 F               0         IfW Z-component position of node 13 (blade 1, node 12), m
         40    2.574E-01                                 F               0         IfW X-component position of node 14 (blade 1, node 13), m
         41    5.651E+01                                 F               0         IfW Y-component position of node 14 (blade 1, node 13), m
         42    1.532E+02                                 F               0         IfW Z-component position of node 14 (blade 1, node 13), m
         43    2.370E-01                                 F               0         IfW X-component position of node 15 (blade 1, node 14), m
         44    6.037E+01                                 F               0         IfW Y-component position of node 15 (blade 1, node 14), m
         45    1.534E+02                                 F               0         IfW Z-component position of node 15 (blade 1, node 14), m
         46    2.165E-01                                 F               0         IfW X-component position of node 16 (blade 1, node 15), m
         47    6.423E+01                                 F               0         IfW Y-component position of node 16 (blade 1, node 15), m
         48    1.536E+02                                 F               0         IfW Z-component position of node 16 (blade 1, node 15), m
         49    1.960E-01                                 F               0         IfW X-component position of node 17 (blade 1, node 16), m
         50    6.810E+01                                 F               0         IfW Y-component position of node 17 (blade 1, node 16), m
         51    1.538E+02                                 F               0         IfW Z-component position of node 17 (blade 1, node 16), m
         52    1.756E-01                                 F               0         IfW X-component position of node 18 (blade 1, node 17), m
         53    7.196E+01                                 F               0         IfW Y-component position of node 18 (blade 1, node 17), m
         54    1.540E+02                                 F               0         IfW Z-component position of node 18 (blade 1, node 17), m
         55    1.551E-01                                 F               0         IfW X-component position of node 19 (blade 1, node 18), m
         56    7.582E+01                                 F               0         IfW Y-component position of node 19 (blade 1, node 18), m
         57    1.542E+02                                 F               0         IfW Z-component position of node 19 (blade 1, node 18), m
         58    1.347E-01                                 F               0         IfW X-component position of node 20 (blade 1, node 19), m
         59    7.968E+01                                 F               0         IfW Y-component position of node 20 (blade 1, node 19), m
         60    1.545E+02                                 F               0         IfW Z-component position of node 20 (blade 1, node 19), m
         61    1.142E-01                                 F               0         IfW X-component position of node 21 (blade 1, node 20), m
         62    8.354E+01                                 F               0         IfW Y-component position of node 21 (blade 1, node 20), m
         63    1.547E+02                                 F               0         IfW Z-component position of node 21 (blade 1, node 20), m
         64    9.376E-02                                 F               0         IfW X-component position of node 22 (blade 1, node 21), m
         65    8.741E+01                                 F               0         IfW Y-component position of node 22 (blade 1, node 21), m
         66    1.549E+02                                 F               0         IfW Z-component position of node 22 (blade 1, node 21), m
         67    7.331E-02                                 F               0         IfW X-component position of node 23 (blade 1, node 22), m
         68    9.127E+01                                 F               0         IfW Y-component position of node 23 (blade 1, node 22), m
         69    1.551E+02                                 F               0         IfW Z-component position of node 23 (blade 1, node 22), m
         70    5.285E-02                                 F               0         IfW X-component position of node 24 (blade 1, node 23), m
         71    9.513E+01                                 F               0         IfW Y-component position of node 24 (blade 1, node 23), m
         72    1.553E+02                                 F               0         IfW Z-component position of node 24 (blade 1, node 23), m
         73    3.240E-02                                 F               0         IfW X-component position of node 25 (blade 1, node 24), m
         74    9.899E+01                                 F               0         IfW Y-component position of node 25 (blade 1, node 24), m
         75    1.555E+02                                 F               0         IfW Z-component position of node 25 (blade 1, node 24), m
         76    1.194E-02                                 F               0         IfW X-component position of node 26 (blade 1, node 25), m
         77    1.029E+02                                 F               0         IfW Y-component position of node 26 (blade 1, node 25), m
         78    1.557E+02                                 F               0         IfW Z-component position of node 26 (blade 1, node 25), m
         79   -8.516E-03                                 F               0         IfW X-component position of node 27 (blade 1, node 26), m
         80    1.067E+02                                 F               0         IfW Y-component position of node 27 (blade 1, node 26), m
         81    1.559E+02                                 F               0         IfW Z-component position of node 27 (blade 1, node 26), m
         82   -2.897E-02                                 F               0         IfW X-component position of node 28 (blade 1, node 27), m
         83    1.106E+02                                 F               0         IfW Y-component position of node 28 (blade 1, node 27), m
         84    1.561E+02                                 F               0         IfW Z-component position of node 28 (blade 1, node 27), m
         85   -4.631E-02                                 F               0         IfW X-component position of node 29 (blade 1, node 28), m
         86    1.139E+02                                 F               0         IfW Y-component position of node 29 (blade 1, node 28), m
         87    1.563E+02                                 F               0         IfW Z-component position of node 29 (blade 1, node 28), m
         88    1.221E+00                                 F               0         IfW X-component position of node 30 (blade 2, node 1), m
         89   -1.012E+01                                 F               0         IfW Y-component position of node 30 (blade 2, node 1), m
         90    1.543E+02                                 F               0         IfW Z-component position of node 30 (blade 2, node 1), m
         91    1.372E+00                                 F               0         IfW X-component position of node 31 (blade 2, node 2), m
         92   -1.085E+01                                 F               0         IfW Y-component position of node 31 (blade 2, node 2), m
         93    1.555E+02                                 F               0         IfW Z-component position of node 31 (blade 2, node 2), m
         94    3.424E+00                                 F               0         IfW X-component position of node 32 (blade 2, node 3), m
         95   -2.074E+01                                 F               0         IfW Y-component position of node 32 (blade 2, node 3), m
         96    1.705E+02                                 F               0         IfW Z-component position of node 32 (blade 2, node 3), m
         97    3.861E+00                                 F               0         IfW X-component position of node 33 (blade 2, node 4), m
         98   -2.285E+01                                 F               0         IfW Y-component position of node 33 (blade 2, node 4), m
         99    1.737E+02                                 F               0         IfW Z-component position of node 33 (blade 2, node 4), m
        100    4.298E+00                                 F               0         IfW X-component position of node 34 (blade 2, node 5), m
        101   -2.496E+01                                 F               0         IfW Y-component position of node 34 (blade 2, node 5), m
        102    1.770E+02                                 F               0         IfW Z-component position of node 34 (blade 2, node 5), m
        103    4.736E+00                                 F               0         IfW X-component position of node 35 (blade 2, node 6), m
        104   -2.707E+01                                 F               0         IfW Y-component position of node 35 (blade 2, node 6), m
        105    1.802E+02                                 F               0         IfW Z-component position of node 35 (blade 2, node 6), m
        106    5.173E+00                                 F               0         IfW X-component position of node 36 (blade 2, node 7), m
        107   -2.918E+01                                 F               0         IfW Y-component position of node 36 (blade 2, node 7), m
        108    1.834E+02                                 F               0         IfW Z-component position of node 36 (blade 2, node 7), m
        109    5.610E+00                                 F               0         IfW X-component position of node 37 (blade 2, node 8), m
        110   -3.129E+01                                 F               0         IfW Y-component position of node 37 (blade 2, node 8), m
        111    1.866E+02                                 F               0         IfW Z-component position of node 37 (blade 2, node 8), m
        112    6.047E+00                                 F               0         IfW X-component position of node 38 (blade 2, node 9), m
        113   -3.340E+01                                 F               0         IfW Y-component position of node 38 (blade 2, node 9), m
        114    1.898E+02                                 F               0         IfW Z-component position of node 38 (blade 2, node 9), m
        115    6.485E+00                                 F               0         IfW X-component position of node 39 (blade 2, node 10), m
        116   -3.550E+01                                 F               0         IfW Y-component position of node 39 (blade 2, node 10), m
        117    1.930E+02                                 F               0         IfW Z-component position of node 39 (blade 2, node 10), m
        118    6.922E+00                                 F               0         IfW X-component position of node 40 (blade 2, node 11), m
        119   -3.761E+01                                 F               0         IfW Y-component position of node 40 (blade 2, node 11), m
        120    1.962E+02                                 F               0         IfW Z-component position of node 40 (blade 2, node 11), m
        121    7.359E+00                                 F               0         IfW X-component position of node 41 (blade 2, node 12), m
        122   -3.972E+01                                 F               0         IfW Y-component position of node 41 (blade 2, node 12), m
        123    1.994E+02                                 F               0         IfW Z-component position of node 41 (blade 2, node 12), m
        124    7.797E+00                                 F               0         IfW X-component position of node 42 (blade 2, node 13), m
        125   -4.183E+01                                 F               0         IfW Y-component position of node 42 (blade 2, node 13), m
        126    2.027E+02                                 F               0         IfW Z-component position of node 42 (blade 2, node 13), m
        127    8.234E+00                                 F               0         IfW X-component position of node 43 (blade 2, node 14), m
        128   -4.394E+01                                 F               0         IfW Y-component position of node 43 (blade 2, node 14), m
        129    2.059E+02                                 F               0         IfW Z-component position of node 43 (blade 2, node 14), m
        130    8.671E+00                                 F               0         IfW X-component position of node 44 (blade 2, node 15), m
        131   -4.605E+01                                 F               0         IfW Y-component position of node 44 (blade 2, node 15), m
        132    2.091E+02                                 F               0         IfW Z-component position of node 44 (blade 2, node 15), m
        133    9.108E+00                                 F               0         IfW X-component position of node 45 (blade 2, node 16), m
        134   -4.816E+01                                 F               0         IfW Y-component position of node 45 (blade 2, node 16), m
        135    2.123E+02                                 F               0         IfW Z-component position of node 45 (blade 2, node 16), m
        136    9.546E+00                                 F               0         IfW X-component position of node 46 (blade 2, node 17), m
        137   -5.027E+01                                 F               0         IfW Y-component position of node 46 (blade 2, node 17), m
        138    2.155E+02                                 F               0         IfW Z-component position of node 46 (blade 2, node 17), m
        139    9.983E+00                                 F               0         IfW X-component position of node 47 (blade 2, node 18), m
        140   -5.237E+01                                 F               0         IfW Y-component position of node 47 (blade 2, node 18), m
        141    2.187E+02                                 F               0         IfW Z-component position of node 47 (blade 2, node 18), m
        142    1.042E+01                                 F               0         IfW X-component position of node 48 (blade 2, node 19), m
        143   -5.448E+01                                 F               0         IfW Y-component position of node 48 (blade 2, node 19), m
        144    2.219E+02                                 F               0         IfW Z-component position of node 48 (blade 2, node 19), m
        145    1.086E+01                                 F               0         IfW X-component position of node 49 (blade 2, node 20), m
        146   -5.659E+01                                 F               0         IfW Y-component position of node 49 (blade 2, node 20), m
        147    2.251E+02                                 F               0         IfW Z-component position of node 49 (blade 2, node 20), m
        148    1.129E+01                                 F               0         IfW X-component position of node 50 (blade 2, node 21), m
        149   -5.870E+01                                 F               0         IfW Y-component position of node 50 (blade 2, node 21), m
        150    2.284E+02                                 F               0         IfW Z-component position of node 50 (blade 2, node 21), m
        151    1.173E+01                                 F               0         IfW X-component position of node 51 (blade 2, node 22), m
        152   -6.081E+01                                 F               0         IfW Y-component position of node 51 (blade 2, node 22), m
        153    2.316E+02                                 F               0         IfW Z-component position of node 51 (blade 2, node 22), m
        154    1.217E+01                                 F               0         IfW X-component position of node 52 (blade 2, node 23), m
        155   -6.292E+01                                 F               0         IfW Y-component position of node 52 (blade 2, node 23), m
        156    2.348E+02                                 F               0         IfW Z-component position of node 52 (blade 2, node 23), m
        157    1.261E+01                                 F               0         IfW X-component position of node 53 (blade 2, node 24), m
        158   -6.503E+01                                 F               0         IfW Y-component position of node 53 (blade 2, node 24), m
        159    2.380E+02                                 F               0         IfW Z-component position of node 53 (blade 2, node 24), m
        160    1.304E+01                                 F               0         IfW X-component position of node 54 (blade 2, node 25), m
        161   -6.713E+01                                 F               0         IfW Y-component position of node 54 (blade 2, node 25), m
        162    2.412E+02                                 F               0         IfW Z-component position of node 54 (blade 2, node 25), m
        163    1.348E+01                                 F               0         IfW X-component position of node 55 (blade 2, node 26), m
        164   -6.924E+01                                 F               0         IfW Y-component position of node 55 (blade 2, node 26), m
        165    2.444E+02                                 F               0         IfW Z-component position of node 55 (blade 2, node 26), m
        166    1.392E+01                                 F               0         IfW X-component position of node 56 (blade 2, node 27), m
        167   -7.135E+01                                 F               0         IfW Y-component position of node 56 (blade 2, node 27), m
        168    2.476E+02                                 F               0         IfW Z-component position of node 56 (blade 2, node 27), m
        169    1.429E+01                                 F               0         IfW X-component position of node 57 (blade 2, node 28), m
        170   -7.314E+01                                 F               0         IfW Y-component position of node 57 (blade 2, node 28), m
        171    2.504E+02                                 F               0         IfW Z-component position of node 57 (blade 2, node 28), m