
Linearized model: Predictions were generated on 06-Feb-2024 at 16:18:08 using OpenFAST, compiled as a 64-bit application using single precision at commit v3.5.1
 linked with  NWTC Subroutine Library; ElastoDyn; InflowWind; AeroDyn; ServoDyn; HydroDyn; MAP++ (<1.20.10>, <Oct-20-2023>)

Description from the FAST input file: CCT-9 Campign 4 model. Input files to be run with OpenFAST 3.5.0. GitHub branch from Lu Wang (https://github.com/luwang00/openfast/tree/dev) compiled on March 7, 2023.

Simulation information:
   Simulation time:                  1003.5000 s
   Rotor Speed:                         1.0420 rad/s
   Azimuth:                             5.1475 rad
   Wind Speed:                         12.0000 m/s
   Number of continuous states:         0
   Number of discrete states:           0
   Number of constraint states:         0
   Number of inputs:                 1746
   Number of outputs:                   4
   Jacobians included in this file?    No

Order of inputs:
     Column   Operating Point                     Rotating Frame? Derivative Order Description
   ---------- ---------------                     --------------- ---------------- -----------
          1    1.513E+01                                 F               0         Tower X translation displacement, node 1, m
          2   -1.424E+00                                 F               0         Tower Y translation displacement, node 1, m
          3   -4.961E-01                                 F               0         Tower Z translation displacement, node 1, m
          4    1.704E+01                                 F               0         Tower X translation displacement, node 2, m
          5   -2.006E+00                                 F               0         Tower Y translation displacement, node 2, m
          6   -6.588E-01                                 F               0         Tower Z translation displacement, node 2, m
          7    1.899E+01                                 F               0         Tower X translation displacement, node 3, m
          8   -2.593E+00                                 F               0         Tower Y translation displacement, node 3, m
          9   -8.271E-01                                 F               0         Tower Z translation displacement, node 3, m
         10    2.096E+01                                 F               0         Tower X translation displacement, node 4, m
         11   -3.185E+00                                 F               0         Tower Y translation displacement, node 4, m
         12   -9.999E-01                                 F               0         Tower Z translation displacement, node 4, m
         13    2.296E+01                                 F               0         Tower X translation displacement, node 5, m
         14   -3.780E+00                                 F               0         Tower Y translation displacement, node 5, m
         15   -1.177E+00                                 F               0         Tower Z translation displacement, node 5, m
         16    2.497E+01                                 F               0         Tower X translation displacement, node 6, m
         17   -4.379E+00                                 F               0         Tower Y translation displacement, node 6, m
         18   -1.356E+00                                 F               0         Tower Z translation displacement, node 6, m
         19    2.699E+01                                 F               0         Tower X translation displacement, node 7, m
         20   -4.979E+00                                 F               0         Tower Y translation displacement, node 7, m
         21   -1.538E+00                                 F               0         Tower Z translation displacement, node 7, m
         22    2.903E+01                                 F               0         Tower X translation displacement, node 8, m
         23   -5.582E+00                                 F               0         Tower Y translation displacement, node 8, m
         24   -1.722E+00                                 F               0         Tower Z translation displacement, node 8, m
         25    3.108E+01                                 F               0         Tower X translation displacement, node 9, m
         26   -6.187E+00                                 F               0         Tower Y translation displacement, node 9, m
         27   -1.908E+00                                 F               0         Tower Z translation displacement, node 9, m
         28    3.313E+01                                 F               0         Tower X translation displacement, node 10, m
         29   -6.792E+00                                 F               0         Tower Y translation displacement, node 10, m
         30   -2.094E+00                                 F               0         Tower Z translation displacement, node 10, m
         31    3.518E+01                                 F               0         Tower X translation displacement, node 11, m
         32   -7.398E+00                                 F               0         Tower Y translation displacement, node 11, m
         33   -2.281E+00                                 F               0         Tower Z translation displacement, node 11, m
         34    9.881E-01, -3.530E-03, -1.540E-01         F               0         Tower X orientation angle, node 1, rad
         35    1.071E-02,  9.989E-01,  4.581E-02         F               0         Tower Y orientation angle, node 1, rad
         36    1.537E-01, -4.691E-02,  9.870E-01         F               0         Tower Z orientation angle, node 1, rad
         37    9.877E-01, -3.406E-03, -1.566E-01         F               0         Tower X orientation angle, node 2, rad
         38    1.077E-02,  9.989E-01,  4.621E-02         F               0         Tower Y orientation angle, node 2, rad
         39    1.563E-01, -4.733E-02,  9.866E-01         F               0         Tower Z orientation angle, node 2, rad
         40    9.873E-01, -3.296E-03, -1.589E-01         F               0         Tower X orientation angle, node 3, rad
         41    1.083E-02,  9.989E-01,  4.657E-02         F               0         Tower Y orientation angle, node 3, rad
         42    1.585E-01, -4.770E-02,  9.862E-01         F               0         Tower Z orientation angle, node 3, rad
         43    9.870E-01, -3.201E-03, -1.608E-01         F               0         Tower X orientation angle, node 4, rad
         44    1.088E-02,  9.988E-01,  4.688E-02         F               0         Tower Y orientation angle, node 4, rad
         45    1.605E-01, -4.802E-02,  9.859E-01         F               0         Tower Z orientation angle, node 4, rad
         46    9.867E-01, -3.121E-03, -1.625E-01         F               0         Tower X orientation angle, node 5, rad
         47    1.092E-02,  9.988E-01,  4.715E-02         F               0         Tower Y orientation angle, node 5, rad
         48    1.621E-01, -4.830E-02,  9.856E-01         F               0         Tower Z orientation angle, node 5, rad
         49    9.865E-01, -3.056E-03, -1.638E-01         F               0         Tower X orientation angle, node 6, rad
         50    1.096E-02,  9.988E-01,  4.738E-02         F               0         Tower Y orientation angle, node 6, rad
         51    1.635E-01, -4.853E-02,  9.854E-01         F               0         Tower Z orientation angle, node 6, rad
         52    9.863E-01, -3.005E-03, -1.648E-01         F               0         Tower X orientation angle, node 7, rad
         53    1.099E-02,  9.988E-01,  4.756E-02         F               0         Tower Y orientation angle, node 7, rad
         54    1.645E-01, -4.872E-02,  9.852E-01         F               0         Tower Z orientation angle, node 7, rad
         55    9.862E-01, -2.967E-03, -1.656E-01         F               0         Tower X orientation angle, node 8, rad
         56    1.101E-02,  9.988E-01,  4.770E-02         F               0         Tower Y orientation angle, node 8, rad
         57    1.652E-01, -4.886E-02,  9.850E-01         F               0         Tower Z orientation angle, node 8, rad
         58    9.861E-01, -2.941E-03, -1.661E-01         F               0         Tower X orientation angle, node 9, rad
         59    1.103E-02,  9.988E-01,  4.780E-02         F               0         Tower Y orientation angle, node 9, rad
         60    1.658E-01, -4.897E-02,  9.849E-01         F               0         Tower Z orientation angle, node 9, rad
         61    9.860E-01, -2.924E-03, -1.665E-01         F               0         Tower X orientation angle, node 10, rad
         62    1.104E-02,  9.988E-01,  4.787E-02         F               0         Tower Y orientation angle, node 10, rad
         63    1.661E-01, -4.904E-02,  9.849E-01         F               0         Tower Z orientation angle, node 10, rad
         64    9.860E-01, -2.915E-03, -1.666E-01         F               0         Tower X orientation angle, node 11, rad
         65    1.105E-02,  9.988E-01,  4.790E-02         F               0         Tower Y orientation angle, node 11, rad
         66    1.663E-01, -4.907E-02,  9.849E-01         F               0         Tower Z orientation angle, node 11, rad
         67    2.766E-05                                 F               0         Tower X translation velocity, node 1, m/s
         68   -4.757E-04                                 F               0         Tower Y translation velocity, node 1, m/s
         69    1.073E-03                                 F               0         Tower Z translation velocity, node 1, m/s
         70   -1.329E-05                                 F               0         Tower X translation velocity, node 2, m/s
         71   -7.838E-04                                 F               0         Tower Y translation velocity, node 2, m/s
         72    1.065E-03                                 F               0         Tower Z translation velocity, node 2, m/s
         73   -1.141E-04                                 F               0         Tower X translation velocity, node 3, m/s
         74   -1.060E-03                                 F               0         Tower Y translation velocity, node 3, m/s
         75    1.067E-03                                 F               0         Tower Z translation velocity, node 3, m/s
         76   -2.544E-04                                 F               0         Tower X translation velocity, node 4, m/s
         77   -1.308E-03                                 F               0         Tower Y translation velocity, node 4, m/s
         78    1.078E-03                                 F               0         Tower Z translation velocity, node 4, m/s
         79   -4.217E-04                                 F               0         Tower X translation velocity, node 5, m/s
         80   -1.532E-03                                 F               0         Tower Y translation velocity, node 5, m/s
         81    1.094E-03                                 F               0         Tower Z translation velocity, node 5, m/s
         82   -6.048E-04                                 F               0         Tower X translation velocity, node 6, m/s
         83   -1.732E-03                                 F               0         Tower Y translation velocity, node 6, m/s
         84    1.115E-03                                 F               0         Tower Z translation velocity, node 6, m/s
         85   -7.946E-04                                 F               0         Tower X translation velocity, node 7, m/s
         86   -1.915E-03                                 F               0         Tower Y translation velocity, node 7, m/s
         87    1.137E-03                                 F               0         Tower Z translation velocity, node 7, m/s
         88   -9.852E-04                                 F               0         Tower X translation velocity, node 8, m/s
         89   -2.080E-03                                 F               0         Tower Y translation velocity, node 8, m/s
         90    1.161E-03                                 F               0         Tower Z translation velocity, node 8, m/s
         91   -1.172E-03                                 F               0         Tower X translation velocity, node 9, m/s
         92   -2.231E-03                                 F               0         Tower Y translation velocity, node 9, m/s
         93    1.185E-03                                 F               0         Tower Z translation velocity, node 9, m/s
         94   -1.354E-03                                 F               0         Tower X translation velocity, node 10, m/s
         95   -2.372E-03                                 F               0         Tower Y translation velocity, node 10, m/s
         96    1.209E-03                                 F               0         Tower Z translation velocity, node 10, m/s
         97   -1.530E-03                                 F               0         Tower X translation velocity, node 11, m/s
         98   -2.506E-03                                 F               0         Tower Y translation velocity, node 11, m/s
         99    1.232E-03                                 F               0         Tower Z translation velocity, node 11, m/s
        100    3.664E+01                                 F               0         Hub X translation displacement, node 1, m
        101   -7.752E+00                                 F               0         Hub Y translation displacement, node 1, m
        102   -6.003E-01                                 F               0         Hub Z translation displacement, node 1, m
        103    9.632E-01,  2.231E-03, -2.687E-01         F               0         Hub X orientation angle, node 1, rad
        104   -2.388E-01,  4.655E-01, -8.522E-01         F               0         Hub Y orientation angle, node 1, rad
        105    1.232E-01,  8.850E-01,  4.490E-01         F               0         Hub Z orientation angle, node 1, rad
        106    1.004E+00                                 F               0         Hub X rotation velocity, node 1, rad/s
        107    2.310E-03                                 F               0         Hub Y rotation velocity, node 1, rad/s
        108   -2.800E-01                                 F               0         Hub Z rotation velocity, node 1, rad/s
        109    9.699E-01, -1.158E-02, -2.433E-01         F               0         Blade root 1 X orientation angle, node 1, rad
        110   -2.101E-01,  4.654E-01, -8.598E-01         F               0         Blade root 1 Y orientation angle, node 1, rad
        111    1.232E-01,  8.850E-01,  4.490E-01         F               0         Blade root 1 Z orientation angle, node 1, rad
        112    9.561E-01, -1.360E-02, -2.927E-01         F               0         Blade root 2 X orientation angle, node 1, rad
        113    2.545E-01,  5.335E-01,  8.066E-01         F               0         Blade root 2 Y orientation angle, node 1, rad
        114    1.452E-01, -8.457E-01,  5.135E-01         F               0         Blade root 2 Z orientation angle, node 1, rad
        115    9.624E-01,  3.187E-02, -2.697E-01         F               0         Blade root 3 X orientation angle, node 1, rad
        116    4.128E-02, -9.987E-01,  2.930E-02         F               0         Blade root 3 Y orientation angle, node 1, rad
        117   -2.684E-01, -3.933E-02, -9.625E-01         F               0         Blade root 3 Z orientation angle, node 1, rad
        118    3.674E+01                                 F               0         Blade 1 X translation displacement, node 1, m
        119   -2.849E+00                                 F               0         Blade 1 Y translation displacement, node 1, m
        120   -3.623E+00                                 F               0         Blade 1 Z translation displacement, node 1, m
        121    3.677E+01                                 F               0         Blade 1 X translation displacement, node 2, m
        122   -1.668E+00                                 F               0         Blade 1 Y translation displacement, node 2, m
        123   -4.351E+00                                 F               0         Blade 1 Z translation displacement, node 2, m
        124    3.710E+01                                 F               0         Blade 1 X translation displacement, node 3, m
        125    1.440E+01                                 F               0         Blade 1 Y translation displacement, node 3, m
        126   -1.425E+01                                 F               0         Blade 1 Z translation displacement, node 3, m
        127    3.718E+01                                 F               0         Blade 1 X translation displacement, node 4, m
        128    1.782E+01                                 F               0         Blade 1 Y translation displacement, node 4, m
        129   -1.636E+01                                 F               0         Blade 1 Z translation displacement, node 4, m
        130    3.725E+01                                 F               0         Blade 1 X translation displacement, node 5, m
        131    2.124E+01                                 F               0         Blade 1 Y translation displacement, node 5, m
        132   -1.847E+01                                 F               0         Blade 1 Z translation displacement, node 5, m
        133    3.732E+01                                 F               0         Blade 1 X translation displacement, node 6, m
        134    2.467E+01                                 F               0         Blade 1 Y translation displacement, node 6, m
        135   -2.058E+01                                 F               0         Blade 1 Z translation displacement, node 6, m
        136    3.739E+01                                 F               0         Blade 1 X translation displacement, node 7, m
        137    2.809E+01                                 F               0         Blade 1 Y translation displacement, node 7, m
        138   -2.269E+01                                 F               0         Blade 1 Z translation displacement, node 7, m
        139    3.746E+01                                 F               0         Blade 1 X translation displacement, node 8, m
        140    3.151E+01                                 F               0         Blade 1 Y translation displacement, node 8, m
        141   -2.480E+01                                 F               0         Blade 1 Z translation displacement, node 8, m
        142    3.754E+01                                 F               0         Blade 1 X translation displacement, node 9, m
        143    3.494E+01                                 F               0         Blade 1 Y translation displacement, node 9, m
        144   -2.691E+01                                 F               0         Blade 1 Z translation displacement, node 9, m
        145    3.761E+01                                 F               0         Blade 1 X translation displacement, node 10, m
        146    3.836E+01                                 F               0         Blade 1 Y translation displacement, node 10, m
        147   -2.902E+01                                 F               0         Blade 1 Z translation displacement, node 10, m
        148    3.768E+01                                 F               0         Blade 1 X translation displacement, node 11, m
        149    4.178E+01                                 F               0         Blade 1 Y translation displacement, node 11, m
        150   -3.113E+01                                 F               0         Blade 1 Z translation displacement, node 11, m
        151    3.775E+01                                 F               0         Blade 1 X translation displacement, node 12, m
        152    4.520E+01                                 F               0         Blade 1 Y translation displacement, node 12, m
        153   -3.324E+01                                 F               0         Blade 1 Z translation displacement, node 12, m
        154    3.783E+01                                 F               0         Blade 1 X translation displacement, node 13, m
        155    4.863E+01                                 F               0         Blade 1 Y translation displacement, node 13, m
        156   -3.535E+01                                 F               0         Blade 1 Z translation displacement, node 13, m
        157    3.790E+01                                 F               0         Blade 1 X translation displacement, node 14, m
        158    5.205E+01                                 F               0         Blade 1 Y translation displacement, node 14, m
        159   -3.746E+01                                 F               0         Blade 1 Z translation displacement, node 14, m
        160    3.797E+01                                 F               0         Blade 1 X translation displacement, node 15, m
        161    5.547E+01                                 F               0         Blade 1 Y translation displacement, node 15, m
        162   -3.958E+01                                 F               0         Blade 1 Z translation displacement, node 15, m
        163    3.804E+01                                 F               0         Blade 1 X translation displacement, node 16, m
        164    5.890E+01                                 F               0         Blade 1 Y translation displacement, node 16, m
        165   -4.169E+01                                 F               0         Blade 1 Z translation displacement, node 16, m
        166    3.811E+01                                 F               0         Blade 1 X translation displacement, node 17, m
        167    6.232E+01                                 F               0         Blade 1 Y translation displacement, node 17, m
        168   -4.380E+01                                 F               0         Blade 1 Z translation displacement, node 17, m
        169    3.819E+01                                 F               0         Blade 1 X translation displacement, node 18, m
        170    6.574E+01                                 F               0         Blade 1 Y translation displacement, node 18, m
        171   -4.591E+01                                 F               0         Blade 1 Z translation displacement, node 18, m
        172    3.826E+01                                 F               0         Blade 1 X translation displacement, node 19, m
        173    6.917E+01                                 F               0         Blade 1 Y translation displacement, node 19, m
        174   -4.802E+01                                 F               0         Blade 1 Z translation displacement, node 19, m
        175    3.833E+01                                 F               0         Blade 1 X translation displacement, node 20, m
        176    7.259E+01                                 F               0         Blade 1 Y translation displacement, node 20, m
        177   -5.013E+01                                 F               0         Blade 1 Z translation displacement, node 20, m
        178    3.840E+01                                 F               0         Blade 1 X translation displacement, node 21, m
        179    7.601E+01                                 F               0         Blade 1 Y translation displacement, node 21, m
        180   -5.224E+01                                 F               0         Blade 1 Z translation displacement, node 21, m
        181    3.847E+01                                 F               0         Blade 1 X translation displacement, node 22, m
        182    7.943E+01                                 F               0         Blade 1 Y translation displacement, node 22, m
        183   -5.435E+01                                 F               0         Blade 1 Z translation displacement, node 22, m
        184    3.855E+01                                 F               0         Blade 1 X translation displacement, node 23, m
        185    8.286E+01                                 F               0         Blade 1 Y translation displacement, node 23, m
        186   -5.646E+01                                 F               0         Blade 1 Z translation displacement, node 23, m
        187    3.862E+01                                 F               0         Blade 1 X translation displacement, node 24, m
        188    8.628E+01                                 F               0         Blade 1 Y translation displacement, node 24, m
        189   -5.857E+01                                 F               0         Blade 1 Z translation displacement, node 24, m
        190    3.869E+01                                 F               0         Blade 1 X translation displacement, node 25, m
        191    8.970E+01                                 F               0         Blade 1 Y translation displacement, node 25, m
        192   -6.068E+01                                 F               0         Blade 1 Z translation displacement, node 25, m
        193    3.876E+01                                 F               0         Blade 1 X translation displacement, node 26, m
        194    9.313E+01                                 F               0         Blade 1 Y translation displacement, node 26, m
        195   -6.279E+01                                 F               0         Blade 1 Z translation displacement, node 26, m
        196    3.884E+01                                 F               0         Blade 1 X translation displacement, node 27, m
        197    9.655E+01                                 F               0         Blade 1 Y translation displacement, node 27, m
        198   -6.490E+01                                 F               0         Blade 1 Z translation displacement, node 27, m
        199    3.890E+01                                 F               0         Blade 1 X translation displacement, node 28, m
        200    9.945E+01                                 F               0         Blade 1 Y translation displacement, node 28, m
        201   -6.668E+01                                 F               0         Blade 1 Z translation displacement, node 28, m
        202    9.590E-01, -2.225E-01,  1.756E-01         F               0         Blade 1 X orientation angle, node 1, rad
        203    2.553E-01,  4.089E-01, -8.761E-01         F               0         Blade 1 Y orientation angle, node 1, rad
        204    1.232E-01,  8.850E-01,  4.490E-01         F               0         Blade 1 Z orientation angle, node 1, rad
        205    9.590E-01, -2.225E-01,  1.756E-01         F               0         Blade 1 X orientation angle, node 2, rad
        206    2.553E-01,  4.089E-01, -8.761E-01         F               0         Blade 1 Y orientation angle, node 2, rad
        207    1.232E-01,  8.850E-01,  4.490E-01         F               0         Blade 1 Z orientation angle, node 2, rad
        208    9.922E-01, -1.193E-01, -3.708E-02         F               0         Blade 1 X orientation angle, node 3, rad
        209    2.074E-02,  4.500E-01, -8.928E-01         F               0         Blade 1 Y orientation angle, node 3, rad
        210    1.232E-01,  8.850E-01,  4.490E-01         F               0         Blade 1 Z orientation angle, node 3, rad
        211    9.922E-01, -1.002E-01, -7.474E-02         F               0         Blade 1 X orientation angle, node 4, rad
        212   -2.117E-02,  4.546E-01, -8.904E-01         F               0         Blade 1 Y orientation angle, node 4, rad
        213    1.232E-01,  8.850E-01,  4.490E-01         F               0         Blade 1 Z orientation angle, node 4, rad
        214    9.909E-01, -8.504E-02, -1.042E-01         F               0         Blade 1 X orientation angle, node 5, rad
        215   -5.406E-02,  4.577E-01, -8.875E-01         F               0         Blade 1 Y orientation angle, node 5, rad
        216    1.232E-01,  8.850E-01,  4.490E-01         F               0         Blade 1 Z orientation angle, node 5, rad
        217    9.891E-01, -7.287E-02, -1.277E-01         F               0         Blade 1 X orientation angle, node 6, rad
        218   -8.032E-02,  4.598E-01, -8.844E-01         F               0         Blade 1 Y orientation angle, node 6, rad
        219    1.232E-01,  8.850E-01,  4.490E-01         F               0         Blade 1 Z orientation angle, node 6, rad
        220    9.871E-01, -6.282E-02, -1.470E-01         F               0         Blade 1 X orientation angle, node 7, rad
        221   -1.019E-01,  4.613E-01, -8.814E-01         F               0         Blade 1 Y orientation angle, node 7, rad
        222    1.232E-01,  8.850E-01,  4.490E-01         F               0         Blade 1 Z orientation angle, node 7, rad
        223    9.851E-01, -5.444E-02, -1.630E-01         F               0         Blade 1 X orientation angle, node 8, rad
        224   -1.198E-01,  4.624E-01, -8.786E-01         F               0         Blade 1 Y orientation angle, node 8, rad
        225    1.232E-01,  8.850E-01,  4.490E-01         F               0         Blade 1 Z orientation angle, node 8, rad
        226    9.832E-01, -4.733E-02, -1.764E-01         F               0         Blade 1 X orientation angle, node 9, rad
        227   -1.349E-01,  4.631E-01, -8.760E-01         F               0         Blade 1 Y orientation angle, node 9, rad