
Linearized model: Predictions were generated on 06-Feb-2024 at 16:18:08 using OpenFAST, compiled as a 64-bit application using single precision at commit v3.5.1
 linked with  NWTC Subroutine Library; ElastoDyn; InflowWind; AeroDyn; ServoDyn; HydroDyn; MAP++ (<1.20.10>, <Oct-20-2023>)

Description from the FAST input file: CCT-9 Campign 4 model. Input files to be run with OpenFAST 3.5.0. GitHub branch from Lu Wang (https://github.com/luwang00/openfast/tree/dev) compiled on March 7, 2023.

Simulation information:
   Simulation time:                  1002.7500 s
   Rotor Speed:                         1.0421 rad/s
   Azimuth:                             4.3660 rad
   Wind Speed:                         12.0000 m/s
   Number of continuous states:         0
   Number of discrete states:           0
   Number of constraint states:         0
   Number of inputs:                  303
   Number of outputs:                   1
   Jacobians included in this file?    No

Order of inputs:
     Column   Operating Point                     Rotating Frame? Derivative Order Description
   ---------- ---------------                     --------------- ---------------- -----------
          1   -1.080E+01                                 F               0         X-component position of node 1 (hub), m
          2    0.000E+00                                 F               0         Y-component position of node 1 (hub), m
          3    1.497E+02                                 F               0         Z-component position of node 1 (hub), m
          4    2.539E+01                                 F               0         X-component position of node 2 (blade 1, node 1), m
          5   -2.452E+00                                 F               0         Y-component position of node 2 (blade 1, node 1), m
          6    1.476E+02                                 F               0         Z-component position of node 2 (blade 1, node 1), m
          7    2.528E+01                                 F               0         X-component position of node 3 (blade 1, node 2), m
          8   -1.176E+00                                 F               0         Y-component position of node 3 (blade 1, node 2), m
          9    1.472E+02                                 F               0         Z-component position of node 3 (blade 1, node 2), m
         10    2.382E+01                                 F               0         X-component position of node 4 (blade 1, node 3), m
         11    1.618E+01                                 F               0         Y-component position of node 4 (blade 1, node 3), m
         12    1.421E+02                                 F               0         Z-component position of node 4 (blade 1, node 3), m
         13    2.350E+01                                 F               0         X-component position of node 5 (blade 1, node 4), m
         14    1.988E+01                                 F               0         Y-component position of node 5 (blade 1, node 4), m
         15    1.410E+02                                 F               0         Z-component position of node 5 (blade 1, node 4), m
         16    2.319E+01                                 F               0         X-component position of node 6 (blade 1, node 5), m
         17    2.358E+01                                 F               0         Y-component position of node 6 (blade 1, node 5), m
         18    1.399E+02                                 F               0         Z-component position of node 6 (blade 1, node 5), m
         19    2.288E+01                                 F               0         X-component position of node 7 (blade 1, node 6), m
         20    2.727E+01                                 F               0         Y-component position of node 7 (blade 1, node 6), m
         21    1.388E+02                                 F               0         Z-component position of node 7 (blade 1, node 6), m
         22    2.257E+01                                 F               0         X-component position of node 8 (blade 1, node 7), m
         23    3.097E+01                                 F               0         Y-component position of node 8 (blade 1, node 7), m
         24    1.377E+02                                 F               0         Z-component position of node 8 (blade 1, node 7), m
         25    2.225E+01                                 F               0         X-component position of node 9 (blade 1, node 8), m
         26    3.467E+01                                 F               0         Y-component position of node 9 (blade 1, node 8), m
         27    1.366E+02                                 F               0         Z-component position of node 9 (blade 1, node 8), m
         28    2.194E+01                                 F               0         X-component position of node 10 (blade 1, node 9), m
         29    3.837E+01                                 F               0         Y-component position of node 10 (blade 1, node 9), m
         30    1.356E+02                                 F               0         Z-component position of node 10 (blade 1, node 9), m
         31    2.163E+01                                 F               0         X-component position of node 11 (blade 1, node 10), m
         32    4.207E+01                                 F               0         Y-component position of node 11 (blade 1, node 10), m
         33    1.345E+02                                 F               0         Z-component position of node 11 (blade 1, node 10), m
         34    2.132E+01                                 F               0         X-component position of node 12 (blade 1, node 11), m
         35    4.576E+01                                 F               0         Y-component position of node 12 (blade 1, node 11), m
         36    1.334E+02                                 F               0         Z-component position of node 12 (blade 1, node 11), m
         37    2.101E+01                                 F               0         X-component position of node 13 (blade 1, node 12), m
         38    4.946E+01                                 F               0         Y-component position of node 13 (blade 1, node 12), m
         39    1.323E+02                                 F               0         Z-component position of node 13 (blade 1, node 12), m
         40    2.069E+01                                 F               0         X-component position of node 14 (blade 1, node 13), m
         41    5.316E+01                                 F               0         Y-component position of node 14 (blade 1, node 13), m
         42    1.312E+02                                 F               0         Z-component position of node 14 (blade 1, node 13), m
         43    2.038E+01                                 F               0         X-component position of node 15 (blade 1, node 14), m
         44    5.686E+01                                 F               0         Y-component position of node 15 (blade 1, node 14), m
         45    1.301E+02                                 F               0         Z-component position of node 15 (blade 1, node 14), m
         46    2.007E+01                                 F               0         X-component position of node 16 (blade 1, node 15), m
         47    6.056E+01                                 F               0         Y-component position of node 16 (blade 1, node 15), m
         48    1.290E+02                                 F               0         Z-component position of node 16 (blade 1, node 15), m
         49    1.976E+01                                 F               0         X-component position of node 17 (blade 1, node 16), m
         50    6.425E+01                                 F               0         Y-component position of node 17 (blade 1, node 16), m
         51    1.279E+02                                 F               0         Z-component position of node 17 (blade 1, node 16), m
         52    1.944E+01                                 F               0         X-component position of node 18 (blade 1, node 17), m
         53    6.795E+01                                 F               0         Y-component position of node 18 (blade 1, node 17), m
         54    1.268E+02                                 F               0         Z-component position of node 18 (blade 1, node 17), m
         55    1.913E+01                                 F               0         X-component position of node 19 (blade 1, node 18), m
         56    7.165E+01                                 F               0         Y-component position of node 19 (blade 1, node 18), m
         57    1.258E+02                                 F               0         Z-component position of node 19 (blade 1, node 18), m
         58    1.882E+01                                 F               0         X-component position of node 20 (blade 1, node 19), m
         59    7.535E+01                                 F               0         Y-component position of node 20 (blade 1, node 19), m
         60    1.247E+02                                 F               0         Z-component position of node 20 (blade 1, node 19), m
         61    1.851E+01                                 F               0         X-component position of node 21 (blade 1, node 20), m
         62    7.905E+01                                 F               0         Y-component position of node 21 (blade 1, node 20), m
         63    1.236E+02                                 F               0         Z-component position of node 21 (blade 1, node 20), m
         64    1.819E+01                                 F               0         X-component position of node 22 (blade 1, node 21), m
         65    8.274E+01                                 F               0         Y-component position of node 22 (blade 1, node 21), m
         66    1.225E+02                                 F               0         Z-component position of node 22 (blade 1, node 21), m
         67    1.788E+01                                 F               0         X-component position of node 23 (blade 1, node 22), m
         68    8.644E+01                                 F               0         Y-component position of node 23 (blade 1, node 22), m
         69    1.214E+02                                 F               0         Z-component position of node 23 (blade 1, node 22), m
         70    1.757E+01                                 F               0         X-component position of node 24 (blade 1, node 23), m
         71    9.014E+01                                 F               0         Y-component position of node 24 (blade 1, node 23), m
         72    1.203E+02                                 F               0         Z-component position of node 24 (blade 1, node 23), m
         73    1.726E+01                                 F               0         X-component position of node 25 (blade 1, node 24), m
         74    9.384E+01                                 F               0         Y-component position of node 25 (blade 1, node 24), m
         75    1.192E+02                                 F               0         Z-component position of node 25 (blade 1, node 24), m
         76    1.694E+01                                 F               0         X-component position of node 26 (blade 1, node 25), m
         77    9.754E+01                                 F               0         Y-component position of node 26 (blade 1, node 25), m
         78    1.181E+02                                 F               0         Z-component position of node 26 (blade 1, node 25), m
         79    1.663E+01                                 F               0         X-component position of node 27 (blade 1, node 26), m
         80    1.012E+02                                 F               0         Y-component position of node 27 (blade 1, node 26), m
         81    1.170E+02                                 F               0         Z-component position of node 27 (blade 1, node 26), m
         82    1.632E+01                                 F               0         X-component position of node 28 (blade 1, node 27), m
         83    1.049E+02                                 F               0         Y-component position of node 28 (blade 1, node 27), m
         84    1.160E+02                                 F               0         Z-component position of node 28 (blade 1, node 27), m
         85    1.606E+01                                 F               0         X-component position of node 29 (blade 1, node 28), m
         86    1.081E+02                                 F               0         Y-component position of node 29 (blade 1, node 28), m
         87    1.150E+02                                 F               0         Z-component position of node 29 (blade 1, node 28), m
         88    2.729E+01                                 F               0         X-component position of node 30 (blade 2, node 1), m
         89   -8.992E+00                                 F               0         Y-component position of node 30 (blade 2, node 1), m
         90    1.543E+02                                 F               0         Z-component position of node 30 (blade 2, node 1), m
         91    2.764E+01                                 F               0         X-component position of node 31 (blade 2, node 2), m
         92   -9.292E+00                                 F               0         Y-component position of node 31 (blade 2, node 2), m
         93    1.556E+02                                 F               0         Z-component position of node 31 (blade 2, node 2), m
         94    3.240E+01                                 F               0         X-component position of node 32 (blade 2, node 3), m
         95   -1.336E+01                                 F               0         Y-component position of node 32 (blade 2, node 3), m
         96    1.726E+02                                 F               0         Z-component position of node 32 (blade 2, node 3), m
         97    3.342E+01                                 F               0         X-component position of node 33 (blade 2, node 4), m
         98   -1.423E+01                                 F               0         Y-component position of node 33 (blade 2, node 4), m
         99    1.763E+02                                 F               0         Z-component position of node 33 (blade 2, node 4), m
        100    3.443E+01                                 F               0         X-component position of node 34 (blade 2, node 5), m
        101   -1.510E+01                                 F               0         Y-component position of node 34 (blade 2, node 5), m
        102    1.799E+02                                 F               0         Z-component position of node 34 (blade 2, node 5), m
        103    3.545E+01                                 F               0         X-component position of node 35 (blade 2, node 6), m
        104   -1.597E+01                                 F               0         Y-component position of node 35 (blade 2, node 6), m
        105    1.835E+02                                 F               0         Z-component position of node 35 (blade 2, node 6), m
        106    3.646E+01                                 F               0         X-component position of node 36 (blade 2, node 7), m
        107   -1.684E+01                                 F               0         Y-component position of node 36 (blade 2, node 7), m
        108    1.871E+02                                 F               0         Z-component position of node 36 (blade 2, node 7), m
        109    3.747E+01                                 F               0         X-component position of node 37 (blade 2, node 8), m
        110   -1.770E+01                                 F               0         Y-component position of node 37 (blade 2, node 8), m
        111    1.908E+02                                 F               0         Z-component position of node 37 (blade 2, node 8), m
        112    3.849E+01                                 F               0         X-component position of node 38 (blade 2, node 9), m
        113   -1.857E+01                                 F               0         Y-component position of node 38 (blade 2, node 9), m
        114    1.944E+02                                 F               0         Z-component position of node 38 (blade 2, node 9), m
        115    3.950E+01                                 F               0         X-component position of node 39 (blade 2, node 10), m
        116   -1.944E+01                                 F               0         Y-component position of node 39 (blade 2, node 10), m
        117    1.980E+02                                 F               0         Z-component position of node 39 (blade 2, node 10), m
        118    4.052E+01                                 F               0         X-component position of node 40 (blade 2, node 11), m
        119   -2.031E+01                                 F               0         Y-component position of node 40 (blade 2, node 11), m
        120    2.017E+02                                 F               0         Z-component position of node 40 (blade 2, node 11), m
        121    4.153E+01                                 F               0         X-component position of node 41 (blade 2, node 12), m
        122   -2.117E+01                                 F               0         Y-component position of node 41 (blade 2, node 12), m
        123    2.053E+02                                 F               0         Z-component position of node 41 (blade 2, node 12), m
        124    4.255E+01                                 F               0         X-component position of node 42 (blade 2, node 13), m
        125   -2.204E+01                                 F               0         Y-component position of node 42 (blade 2, node 13), m
        126    2.089E+02                                 F               0         Z-component position of node 42 (blade 2, node 13), m
        127    4.356E+01                                 F               0         X-component position of node 43 (blade 2, node 14), m
        128   -2.291E+01                                 F               0         Y-component position of node 43 (blade 2, node 14), m
        129    2.126E+02                                 F               0         Z-component position of node 43 (blade 2, node 14), m
        130    4.458E+01                                 F               0         X-component position of node 44 (blade 2, node 15), m
        131   -2.378E+01                                 F               0         Y-component position of node 44 (blade 2, node 15), m
        132    2.162E+02                                 F               0         Z-component position of node 44 (blade 2, node 15), m
        133    4.559E+01                                 F               0         X-component position of node 45 (blade 2, node 16), m
        134   -2.465E+01                                 F               0         Y-component position of node 45 (blade 2, node 16), m
        135    2.198E+02                                 F               0         Z-component position of node 45 (blade 2, node 16), m
        136    4.661E+01                                 F               0         X-component position of node 46 (blade 2, node 17), m
        137   -2.551E+01                                 F               0         Y-component position of node 46 (blade 2, node 17), m
        138    2.234E+02                                 F               0         Z-component position of node 46 (blade 2, node 17), m
        139    4.762E+01                                 F               0         X-component position of node 47 (blade 2, node 18), m
        140   -2.638E+01                                 F               0         Y-component position of node 47 (blade 2, node 18), m
        141    2.271E+02                                 F               0         Z-component position of node 47 (blade 2, node 18), m
        142    4.863E+01                                 F               0         X-component position of node 48 (blade 2, node 19), m
        143   -2.725E+01                                 F               0         Y-component position of node 48 (blade 2, node 19), m
        144    2.307E+02                                 F               0         Z-component position of node 48 (blade 2, node 19), m
        145    4.965E+01                                 F               0         X-component position of node 49 (blade 2, node 20), m
        146   -2.812E+01                                 F               0         Y-component position of node 49 (blade 2, node 20), m
        147    2.343E+02                                 F               0         Z-component position of node 49 (blade 2, node 20), m
        148    5.066E+01                                 F               0         X-component position of node 50 (blade 2, node 21), m
        149   -2.898E+01                                 F               0         Y-component position of node 50 (blade 2, node 21), m
        150    2.380E+02                                 F               0         Z-component position of node 50 (blade 2, node 21), m
        151    5.168E+01                                 F               0         X-component position of node 51 (blade 2, node 22), m
        152   -2.985E+01                                 F               0         Y-component position of node 51 (blade 2, node 22), m
        153    2.416E+02                                 F               0         Z-component position of node 51 (blade 2, node 22), m
        154    5.269E+01                                 F               0         X-component position of node 52 (blade 2, node 23), m
        155   -3.072E+01                                 F               0         Y-component position of node 52 (blade 2, node 23), m
        156    2.452E+02                                 F               0         Z-component position of node 52 (blade 2, node 23), m
        157    5.371E+01                                 F               0         X-component position of node 53 (blade 2, node 24), m
        158   -3.159E+01                                 F               0         Y-component position of node 53 (blade 2, node 24), m
        159    2.489E+02                                 F               0         Z-component position of node 53 (blade 2, node 24), m
        160    5.472E+01                                 F               0         X-component position of node 54 (blade 2, node 25), m
        161   -3.246E+01                                 F               0         Y-component position of node 54 (blade 2, node 25), m
        162    2.525E+02                                 F               0         Z-component position of node 54 (blade 2, node 25), m
        163    5.574E+01                                 F               0         X-component position of node 55 (blade 2, node 26), m
        164   -3.332E+01                                 F               0         Y-component position of node 55 (blade 2, node 26), m
        165    2.561E+02                                 F               0         Z-component position of node 55 (blade 2, node 26), m
        166    5.675E+01                                 F               0         X-component position of node 56 (blade 2, node 27), m
        167   -3.419E+01                                 F               0         Y-component position of node 56 (blade 2, node 27), m
        168    2.597E+02                                 F               0         Z-component position of node 56 (blade 2, node 27), m
        169    5.761E+01                                 F               0         X-component position of node 57 (blade 2, node 28), m
        170   -3.493E+01                                 F               0         Y-component position of node 57 (blade 2, node 28), m
        171    2.628E+02                                 F               0         Z-component position of node 57 (blade 2, node 28), m
        172    2.483E+01                                 F               0         X-component position of node 58 (blade 3, node 1), m
        173   -1.180E+01                                 F               0         Y-component position of node 58 (blade 3, node 1), m
        174    1.455E+02                                 F               0         Z-component position of node 58 (blade 3, node 1), m
        175    2.459E+01                                 F               0         X-component position of node 59 (blade 3, node 2), m
        176   -1.278E+01                                 F               0         Y-component position of node 59 (blade 3, node 2), m
        177    1.446E+02                                 F               0         Z-component position of node 59 (blade 3, node 2), m
        178    2.129E+01                                 F               0         X-component position of node 60 (blade 3, node 3), m
        179   -2.606E+01                                 F               0         Y-component position of node 60 (blade 3, node 3), m
        180    1.327E+02                                 F               0         Z-component position of node 60 (blade 3, node 3), m
        181    2.059E+01                                 F               0         X-component position of node 61 (blade 3, node 4), m
        182   -2.889E+01                                 F               0         Y-component position of node 61 (blade 3, node 4), m
        183    1.302E+02                                 F               0         Z-component position of node 61 (blade 3, node 4), m
        184    1.989E+01                                 F               0         X-component position of node 62 (blade 3, node 5), m
        185   -3.172E+01                                 F               0         Y-component position of node 62 (blade 3, node 5), m
        186    1.276E+02                                 F               0         Z-component position of node 62 (blade 3, node 5), m
        187    1.919E+01                                 F               0         X-component position of node 63 (blade 3, node 6), m
        188   -3.455E+01                                 F               0         Y-component position of node 63 (blade 3, node 6), m
        189    1.251E+02                                 F               0         Z-component position of node 63 (blade 3, node 6), m
        190    1.849E+01                                 F               0         X-component position of node 64 (blade 3, node 7), m
        191   -3.738E+01                                 F               0         Y-component position of node 64 (blade 3, node 7), m
        192    1.225E+02                                 F               0         Z-component position of node 64 (blade 3, node 7), m
        193    1.778E+01                                 F               0         X-component position of node 65 (blade 3, node 8), m
        194   -4.022E+01                                 F               0         Y-component position of node 65 (blade 3, node 8), m
        195    1.200E+02                                 F               0         Z-component position of node 65 (blade 3, node 8), m
        196    1.708E+01                                 F               0         X-component position of node 66 (blade 3, node 9), m
        197   -4.305E+01                                 F               0         Y-component position of node 66 (blade 3, node 9), m
        198    1.175E+02                                 F               0         Z-component position of node 66 (blade 3, node 9), m
        199    1.638E+01                                 F               0         X-component position of node 67 (blade 3, node 10), m
        200   -4.588E+01                                 F               0         Y-component position of node 67 (blade 3, node 10), m
        201    1.149E+02                                 F               0         Z-component position of node 67 (blade 3, node 10), m
        202    1.568E+01                                 F               0         X-component position of node 68 (blade 3, node 11), m
        203   -4.871E+01                                 F               0         Y-component position of node 68 (blade 3, node 11), m
        204    1.124E+02                                 F               0         Z-component position of node 68 (blade 3, node 11), m
        205    1.497E+01                                 F               0         X-component position of node 69 (blade 3, node 12), m
        206   -5.154E+01                                 F               0         Y-component position of node 69 (blade 3, node 12), m
        207    1.098E+02                                 F               0         Z-component position of node 69 (blade 3, node 12), m
        208    1.427E+01                                 F               0         X-component position of node 70 (blade 3, node 13), m
        209   -5.437E+01                                 F               0         Y-component position of node 70 (blade 3, node 13), m
        210    1.073E+02                                 F               0         Z-component position of node 70 (blade 3, node 13), m
        211    1.357E+01                                 F               0         X-component position of node 71 (blade 3, node 14), m