
Linearized model: Predictions were generated on 06-Feb-2024 at 16:18:08 using OpenFAST, compiled as a 64-bit application using single precision at commit v3.5.1
 linked with  NWTC Subroutine Library; ElastoDyn; InflowWind; AeroDyn; ServoDyn; HydroDyn; MAP++ (<1.20.10>, <Oct-20-2023>)

Description from the FAST input file: CCT-9 Campign 4 model. Input files to be run with OpenFAST 3.5.0. GitHub branch from Lu Wang (https://github.com/luwang00/openfast/tree/dev) compiled on March 7, 2023.

Simulation information:
   Simulation time:                  1003.9750 s
   Rotor Speed:                         1.0420 rad/s
   Azimuth:                             5.6425 rad
   Wind Speed:                         12.0000 m/s
   Number of continuous states:        18
   Number of discrete states:           0
   Number of constraint states:         0
   Number of inputs:                 3988
   Number of outputs:                  36
   Jacobians included in this file?    No

Order of continuous states:
   Row/Column Operating Point                     Rotating Frame? Derivative Order Description
   ---------- ---------------                     --------------- ---------------- -----------
          1    1.231E+01                                 F               2         ED Platform horizontal surge translation DOF (internal DOF index = DOF_Sg), m
          2   -2.572E-01                                 F               2         ED Platform vertical heave translation DOF (internal DOF index = DOF_Hv), m
          3    4.698E-02                                 F               2         ED Platform roll tilt rotation DOF (internal DOF index = DOF_R), rad
          4    1.559E-01                                 F               2         ED Platform pitch tilt rotation DOF (internal DOF index = DOF_P), rad
          5    1.079E+00                                 F               2         ED 1st tower fore-aft bending mode DOF (internal DOF index = DOF_TFA1), m
          6    1.738E-01                                 F               2         ED 1st tower side-to-side bending mode DOF (internal DOF index = DOF_TSS1), m
          7    1.607E-03                                 F               2         ED 2nd tower fore-aft bending mode DOF (internal DOF index = DOF_TFA2), m
          8    8.018E-05                                 F               2         ED 2nd tower side-to-side bending mode DOF (internal DOF index = DOF_TSS2), m
          9    4.072E+00                                 F               2         ED Variable speed generator DOF (internal DOF index = DOF_GeAz), rad
         10   -4.425E-05                                 F               2         ED First time derivative of Platform horizontal surge translation DOF (internal DOF index = DOF_Sg), m/s
         11    1.722E-03                                 F               2         ED First time derivative of Platform vertical heave translation DOF (internal DOF index = DOF_Hv), m/s
         12    7.517E-06                                 F               2         ED First time derivative of Platform roll tilt rotation DOF (internal DOF index = DOF_R), rad/s
         13   -5.697E-06                                 F               2         ED First time derivative of Platform pitch tilt rotation DOF (internal DOF index = DOF_P), rad/s
         14   -2.144E-05                                 F               2         ED First time derivative of 1st tower fore-aft bending mode DOF (internal DOF index = DOF_TFA1), m/s
         15   -6.122E-04                                 F               2         ED First time derivative of 1st tower side-to-side bending mode DOF (internal DOF index = DOF_TSS1), m/s
         16   -1.017E-05                                 F               2         ED First time derivative of 2nd tower fore-aft bending mode DOF (internal DOF index = DOF_TFA2), m/s
         17   -7.947E-07                                 F               2         ED First time derivative of 2nd tower side-to-side bending mode DOF (internal DOF index = DOF_TSS2), m/s
         18    1.042E+00                                 F               2         ED First time derivative of Variable speed generator DOF (internal DOF index = DOF_GeAz), rad/s

Order of continuous state derivatives:
   Row/Column Operating Point                     Rotating Frame? Derivative Order Description
   ---------- ---------------                     --------------- ---------------- -----------
          1   -4.425E-05                                 F               2         First time derivative of ED Platform horizontal surge translation DOF (internal DOF index = DOF_Sg), m/s
          2    1.722E-03                                 F               2         First time derivative of ED Platform vertical heave translation DOF (internal DOF index = DOF_Hv), m/s
          3    7.517E-06                                 F               2         First time derivative of ED Platform roll tilt rotation DOF (internal DOF index = DOF_R), rad/s
          4   -5.697E-06                                 F               2         First time derivative of ED Platform pitch tilt rotation DOF (internal DOF index = DOF_P), rad/s
          5   -2.144E-05                                 F               2         First time derivative of ED 1st tower fore-aft bending mode DOF (internal DOF index = DOF_TFA1), m/s
          6   -6.122E-04                                 F               2         First time derivative of ED 1st tower side-to-side bending mode DOF (internal DOF index = DOF_TSS1), m/s
          7   -1.017E-05                                 F               2         First time derivative of ED 2nd tower fore-aft bending mode DOF (internal DOF index = DOF_TFA2), m/s
          8   -7.947E-07                                 F               2         First time derivative of ED 2nd tower side-to-side bending mode DOF (internal DOF index = DOF_TSS2), m/s
          9    1.042E+00                                 F               2         First time derivative of ED Variable speed generator DOF (internal DOF index = DOF_GeAz), rad/s
         10   -3.573E-04                                 F               2         First time derivative of ED First time derivative of Platform horizontal surge translation DOF (internal DOF index = DOF_Sg), m/s/s
         11    1.376E-03                                 F               2         First time derivative of ED First time derivative of Platform vertical heave translation DOF (internal DOF index = DOF_Hv), m/s/s
         12   -4.378E-05                                 F               2         First time derivative of ED First time derivative of Platform roll tilt rotation DOF (internal DOF index = DOF_R), rad/s/s
         13   -1.785E-05                                 F               2         First time derivative of ED First time derivative of Platform pitch tilt rotation DOF (internal DOF index = DOF_P), rad/s/s
         14    5.798E-03                                 F               2         First time derivative of ED First time derivative of 1st tower fore-aft bending mode DOF (internal DOF index = DOF_TFA1), m/s/s
         15    1.546E-03                                 F               2         First time derivative of ED First time derivative of 1st tower side-to-side bending mode DOF (internal DOF index = DOF_TSS1), m/s/s
         16    1.664E-05                                 F               2         First time derivative of ED First time derivative of 2nd tower fore-aft bending mode DOF (internal DOF index = DOF_TFA2), m/s/s
         17   -5.170E-06                                 F               2         First time derivative of ED First time derivative of 2nd tower side-to-side bending mode DOF (internal DOF index = DOF_TSS2), m/s/s
         18   -1.412E-04                                 F               2         First time derivative of ED First time derivative of Variable speed generator DOF (internal DOF index = DOF_GeAz), rad/s/s

Order of inputs:
     Column   Operating Point                     Rotating Frame? Derivative Order Description
   ---------- ---------------                     --------------- ---------------- -----------
          1   -1.080E+01                                 F               0         IfW X-component position of node 1 (hub), m
          2    0.000E+00                                 F               0         IfW Y-component position of node 1 (hub), m
          3    1.497E+02                                 F               0         IfW Z-component position of node 1 (hub), m
          4    2.707E+01                                 F               0         IfW X-component position of node 2 (blade 1, node 1), m
          5   -4.663E+00                                 F               0         IfW Y-component position of node 2 (blade 1, node 1), m
          6    1.536E+02                                 F               0         IfW Z-component position of node 2 (blade 1, node 1), m
          7    2.736E+01                                 F               0         IfW X-component position of node 3 (blade 1, node 2), m
          8   -3.919E+00                                 F               0         IfW Y-component position of node 3 (blade 1, node 2), m
          9    1.546E+02                                 F               0         IfW Z-component position of node 3 (blade 1, node 2), m
         10    3.139E+01                                 F               0         IfW X-component position of node 4 (blade 1, node 3), m
         11    6.204E+00                                 F               0         IfW Y-component position of node 4 (blade 1, node 3), m
         12    1.692E+02                                 F               0         IfW Z-component position of node 4 (blade 1, node 3), m
         13    3.225E+01                                 F               0         IfW X-component position of node 5 (blade 1, node 4), m
         14    8.361E+00                                 F               0         IfW Y-component position of node 5 (blade 1, node 4), m
         15    1.723E+02                                 F               0         IfW Z-component position of node 5 (blade 1, node 4), m
         16    3.310E+01                                 F               0         IfW X-component position of node 6 (blade 1, node 5), m
         17    1.052E+01                                 F               0         IfW Y-component position of node 6 (blade 1, node 5), m
         18    1.753E+02                                 F               0         IfW Z-component position of node 6 (blade 1, node 5), m
         19    3.396E+01                                 F               0         IfW X-component position of node 7 (blade 1, node 6), m
         20    1.268E+01                                 F               0         IfW Y-component position of node 7 (blade 1, node 6), m
         21    1.784E+02                                 F               0         IfW Z-component position of node 7 (blade 1, node 6), m
         22    3.482E+01                                 F               0         IfW X-component position of node 8 (blade 1, node 7), m
         23    1.483E+01                                 F               0         IfW Y-component position of node 8 (blade 1, node 7), m
         24    1.815E+02                                 F               0         IfW Z-component position of node 8 (blade 1, node 7), m
         25    3.568E+01                                 F               0         IfW X-component position of node 9 (blade 1, node 8), m
         26    1.699E+01                                 F               0         IfW Y-component position of node 9 (blade 1, node 8), m
         27    1.846E+02                                 F               0         IfW Z-component position of node 9 (blade 1, node 8), m
         28    3.653E+01                                 F               0         IfW X-component position of node 10 (blade 1, node 9), m
         29    1.915E+01                                 F               0         IfW Y-component position of node 10 (blade 1, node 9), m
         30    1.877E+02                                 F               0         IfW Z-component position of node 10 (blade 1, node 9), m
         31    3.739E+01                                 F               0         IfW X-component position of node 11 (blade 1, node 10), m
         32    2.130E+01                                 F               0         IfW Y-component position of node 11 (blade 1, node 10), m
         33    1.908E+02                                 F               0         IfW Z-component position of node 11 (blade 1, node 10), m
         34    3.825E+01                                 F               0         IfW X-component position of node 12 (blade 1, node 11), m
         35    2.346E+01                                 F               0         IfW Y-component position of node 12 (blade 1, node 11), m
         36    1.939E+02                                 F               0         IfW Z-component position of node 12 (blade 1, node 11), m
         37    3.911E+01                                 F               0         IfW X-component position of node 13 (blade 1, node 12), m
         38    2.562E+01                                 F               0         IfW Y-component position of node 13 (blade 1, node 12), m
         39    1.970E+02                                 F               0         IfW Z-component position of node 13 (blade 1, node 12), m
         40    3.997E+01                                 F               0         IfW X-component position of node 14 (blade 1, node 13), m
         41    2.777E+01                                 F               0         IfW Y-component position of node 14 (blade 1, node 13), m
         42    2.001E+02                                 F               0         IfW Z-component position of node 14 (blade 1, node 13), m
         43    4.082E+01                                 F               0         IfW X-component position of node 15 (blade 1, node 14), m
         44    2.993E+01                                 F               0         IfW Y-component position of node 15 (blade 1, node 14), m
         45    2.032E+02                                 F               0         IfW Z-component position of node 15 (blade 1, node 14), m
         46    4.168E+01                                 F               0         IfW X-component position of node 16 (blade 1, node 15), m
         47    3.209E+01                                 F               0         IfW Y-component position of node 16 (blade 1, node 15), m
         48    2.063E+02                                 F               0         IfW Z-component position of node 16 (blade 1, node 15), m
         49    4.254E+01                                 F               0         IfW X-component position of node 17 (blade 1, node 16), m
         50    3.424E+01                                 F               0         IfW Y-component position of node 17 (blade 1, node 16), m
         51    2.094E+02                                 F               0         IfW Z-component position of node 17 (blade 1, node 16), m
         52    4.340E+01                                 F               0         IfW X-component position of node 18 (blade 1, node 17), m
         53    3.640E+01                                 F               0         IfW Y-component position of node 18 (blade 1, node 17), m
         54    2.125E+02                                 F               0         IfW Z-component position of node 18 (blade 1, node 17), m
         55    4.426E+01                                 F               0         IfW X-component position of node 19 (blade 1, node 18), m
         56    3.856E+01                                 F               0         IfW Y-component position of node 19 (blade 1, node 18), m
         57    2.156E+02                                 F               0         IfW Z-component position of node 19 (blade 1, node 18), m
         58    4.511E+01                                 F               0         IfW X-component position of node 20 (blade 1, node 19), m
         59    4.072E+01                                 F               0         IfW Y-component position of node 20 (blade 1, node 19), m
         60    2.187E+02                                 F               0         IfW Z-component position of node 20 (blade 1, node 19), m
         61    4.597E+01                                 F               0         IfW X-component position of node 21 (blade 1, node 20), m
         62    4.287E+01                                 F               0         IfW Y-component position of node 21 (blade 1, node 20), m
         63    2.218E+02                                 F               0         IfW Z-component position of node 21 (blade 1, node 20), m
         64    4.683E+01                                 F               0         IfW X-component position of node 22 (blade 1, node 21), m
         65    4.503E+01                                 F               0         IfW Y-component position of node 22 (blade 1, node 21), m
         66    2.248E+02                                 F               0         IfW Z-component position of node 22 (blade 1, node 21), m
         67    4.769E+01                                 F               0         IfW X-component position of node 23 (blade 1, node 22), m
         68    4.719E+01                                 F               0         IfW Y-component position of node 23 (blade 1, node 22), m
         69    2.279E+02                                 F               0         IfW Z-component position of node 23 (blade 1, node 22), m
         70    4.855E+01                                 F               0         IfW X-component position of node 24 (blade 1, node 23), m
         71    4.934E+01                                 F               0         IfW Y-component position of node 24 (blade 1, node 23), m
         72    2.310E+02                                 F               0         IfW Z-component position of node 24 (blade 1, node 23), m
         73    4.940E+01                                 F               0         IfW X-component position of node 25 (blade 1, node 24), m
         74    5.150E+01                                 F               0         IfW Y-component position of node 25 (blade 1, node 24), m
         75    2.341E+02                                 F               0         IfW Z-component position of node 25 (blade 1, node 24), m
         76    5.026E+01                                 F               0         IfW X-component position of node 26 (blade 1, node 25), m
         77    5.366E+01                                 F               0         IfW Y-component position of node 26 (blade 1, node 25), m
         78    2.372E+02                                 F               0         IfW Z-component position of node 26 (blade 1, node 25), m
         79    5.112E+01                                 F               0         IfW X-component position of node 27 (blade 1, node 26), m
         80    5.581E+01                                 F               0         IfW Y-component position of node 27 (blade 1, node 26), m
         81    2.403E+02                                 F               0         IfW Z-component position of node 27 (blade 1, node 26), m
         82    5.198E+01                                 F               0         IfW X-component position of node 28 (blade 1, node 27), m
         83    5.797E+01                                 F               0         IfW Y-component position of node 28 (blade 1, node 27), m
         84    2.434E+02                                 F               0         IfW Z-component position of node 28 (blade 1, node 27), m
         85    5.270E+01                                 F               0         IfW X-component position of node 29 (blade 1, node 28), m
         86    5.980E+01                                 F               0         IfW Y-component position of node 29 (blade 1, node 28), m
         87    2.460E+02                                 F               0         IfW Z-component position of node 29 (blade 1, node 28), m
         88    2.595E+01                                 F               0         IfW X-component position of node 30 (blade 2, node 1), m
         89   -1.328E+01                                 F               0         IfW Y-component position of node 30 (blade 2, node 1), m
         90    1.495E+02                                 F               0         IfW Z-component position of node 30 (blade 2, node 1), m
         91    2.598E+01                                 F               0         IfW X-component position of node 31 (blade 2, node 2), m
         92   -1.461E+01                                 F               0         IfW Y-component position of node 31 (blade 2, node 2), m
         93    1.496E+02                                 F               0         IfW Z-component position of node 31 (blade 2, node 2), m
         94    2.635E+01                                 F               0         IfW X-component position of node 32 (blade 2, node 3), m
         95   -3.272E+01                                 F               0         IfW Y-component position of node 32 (blade 2, node 3), m
         96    1.508E+02                                 F               0         IfW Z-component position of node 32 (blade 2, node 3), m
         97    2.643E+01                                 F               0         IfW X-component position of node 33 (blade 2, node 4), m
         98   -3.658E+01                                 F               0         IfW Y-component position of node 33 (blade 2, node 4), m
         99    1.510E+02                                 F               0         IfW Z-component position of node 33 (blade 2, node 4), m
        100    2.650E+01                                 F               0         IfW X-component position of node 34 (blade 2, node 5), m
        101   -4.044E+01                                 F               0         IfW Y-component position of node 34 (blade 2, node 5), m
        102    1.513E+02                                 F               0         IfW Z-component position of node 34 (blade 2, node 5), m
        103    2.658E+01                                 F               0         IfW X-component position of node 35 (blade 2, node 6), m
        104   -4.430E+01                                 F               0         IfW Y-component position of node 35 (blade 2, node 6), m
        105    1.515E+02                                 F               0         IfW Z-component position of node 35 (blade 2, node 6), m
        106    2.666E+01                                 F               0         IfW X-component position of node 36 (blade 2, node 7), m
        107   -4.816E+01                                 F               0         IfW Y-component position of node 36 (blade 2, node 7), m
        108    1.518E+02                                 F               0         IfW Z-component position of node 36 (blade 2, node 7), m
        109    2.674E+01                                 F               0         IfW X-component position of node 37 (blade 2, node 8), m
        110   -5.202E+01                                 F               0         IfW Y-component position of node 37 (blade 2, node 8), m
        111    1.520E+02                                 F               0         IfW Z-component position of node 37 (blade 2, node 8), m
        112    2.682E+01                                 F               0         IfW X-component position of node 38 (blade 2, node 9), m
        113   -5.587E+01                                 F               0         IfW Y-component position of node 38 (blade 2, node 9), m
        114    1.523E+02                                 F               0         IfW Z-component position of node 38 (blade 2, node 9), m
        115    2.690E+01                                 F               0         IfW X-component position of node 39 (blade 2, node 10), m
        116   -5.973E+01                                 F               0         IfW Y-component position of node 39 (blade 2, node 10), m
        117    1.525E+02                                 F               0         IfW Z-component position of node 39 (blade 2, node 10), m
        118    2.698E+01                                 F               0         IfW X-component position of node 40 (blade 2, node 11), m
        119   -6.359E+01                                 F               0         IfW Y-component position of node 40 (blade 2, node 11), m
        120    1.528E+02                                 F               0         IfW Z-component position of node 40 (blade 2, node 11), m
        121    2.706E+01                                 F               0         IfW X-component position of node 41 (blade 2, node 12), m
        122   -6.745E+01                                 F               0         IfW Y-component position of node 41 (blade 2, node 12), m
        123    1.530E+02                                 F               0         IfW Z-component position of node 41 (blade 2, node 12), m
        124    2.714E+01                                 F               0         IfW X-component position of node 42 (blade 2, node 13), m
        125   -7.131E+01                                 F               0         IfW Y-component position of node 42 (blade 2, node 13), m
        126    1.533E+02                                 F               0         IfW Z-component position of node 42 (blade 2, node 13), m
        127    2.721E+01                                 F               0         IfW X-component position of node 43 (blade 2, node 14), m
        128   -7.517E+01                                 F               0         IfW Y-component position of node 43 (blade 2, node 14), m
        129    1.535E+02                                 F               0         IfW Z-component position of node 43 (blade 2, node 14), m
        130    2.729E+01                                 F               0         IfW X-component position of node 44 (blade 2, node 15), m
        131   -7.903E+01                                 F               0         IfW Y-component position of node 44 (blade 2, node 15), m
        132    1.538E+02                                 F               0         IfW Z-component position of node 44 (blade 2, node 15), m
        133    2.737E+01                                 F               0         IfW X-component position of node 45 (blade 2, node 16), m
        134   -8.289E+01                                 F               0         IfW Y-component position of node 45 (blade 2, node 16), m
        135    1.540E+02                                 F               0         IfW Z-component position of node 45 (blade 2, node 16), m
        136    2.745E+01                                 F               0         IfW X-component position of node 46 (blade 2, node 17), m
        137   -8.674E+01                                 F               0         IfW Y-component position of node 46 (blade 2, node 17), m
        138    1.543E+02                                 F               0         IfW Z-component position of node 46 (blade 2, node 17), m
        139    2.753E+01                                 F               0         IfW X-component position of node 47 (blade 2, node 18), m
        140   -9.060E+01                                 F               0         IfW Y-component position of node 47 (blade 2, node 18), m
        141    1.545E+02                                 F               0         IfW Z-component position of node 47 (blade 2, node 18), m
        142    2.761E+01                                 F               0         IfW X-component position of node 48 (blade 2, node 19), m
        143   -9.446E+01                                 F               0         IfW Y-component position of node 48 (blade 2, node 19), m
        144    1.548E+02                                 F               0         IfW Z-component position of node 48 (blade 2, node 19), m
        145    2.769E+01                                 F               0         IfW X-component position of node 49 (blade 2, node 20), m
        146   -9.832E+01                                 F               0         IfW Y-component position of node 49 (blade 2, node 20), m
        147    1.550E+02                                 F               0         IfW Z-component position of node 49 (blade 2, node 20), m
        148    2.777E+01                                 F               0         IfW X-component position of node 50 (blade 2, node 21), m
        149   -1.022E+02                                 F               0         IfW Y-component position of node 50 (blade 2, node 21), m
        150    1.553E+02                                 F               0         IfW Z-component position of node 50 (blade 2, node 21), m
        151    2.785E+01                                 F               0         IfW X-component position of node 51 (blade 2, node 22), m
        152   -1.060E+02                                 F               0         IfW Y-component position of node 51 (blade 2, node 22), m
        153    1.555E+02                                 F               0         IfW Z-component position of node 51 (blade 2, node 22), m
        154    2.792E+01                                 F               0         IfW X-component position of node 52 (blade 2, node 23), m
        155   -1.099E+02                                 F               0         IfW Y-component position of node 52 (blade 2, node 23), m