
Linearized model: Predictions were generated on 06-Feb-2024 at 16:18:08 using OpenFAST, compiled as a 64-bit application using single precision at commit v3.5.1
 linked with  NWTC Subroutine Library; ElastoDyn; InflowWind; AeroDyn; ServoDyn; HydroDyn; MAP++ (<1.20.10>, <Oct-20-2023>)

Description from the FAST input file: CCT-9 Campign 4 model. Input files to be run with OpenFAST 3.5.0. GitHub branch from Lu Wang (https://github.com/luwang00/openfast/tree/dev) compiled on March 7, 2023.

Simulation information:
   Simulation time:                  1006.2250 s
   Rotor Speed:                         1.0419 rad/s
   Azimuth:                             1.7035 rad
   Wind Speed:                         12.0000 m/s
   Number of continuous states:         0
   Number of discrete states:           0
   Number of constraint states:         0
   Number of inputs:                 1746
   Number of outputs:                   4
   Jacobians included in this file?    No

Order of inputs:
     Column   Operating Point                     Rotating Frame? Derivative Order Description
   ---------- ---------------                     --------------- ---------------- -----------
          1    1.513E+01                                 F               0         Tower X translation displacement, node 1, m
          2   -1.423E+00                                 F               0         Tower Y translation displacement, node 1, m
          3   -4.880E-01                                 F               0         Tower Z translation displacement, node 1, m
          4    1.704E+01                                 F               0         Tower X translation displacement, node 2, m
          5   -2.004E+00                                 F               0         Tower Y translation displacement, node 2, m
          6   -6.507E-01                                 F               0         Tower Z translation displacement, node 2, m
          7    1.899E+01                                 F               0         Tower X translation displacement, node 3, m
          8   -2.591E+00                                 F               0         Tower Y translation displacement, node 3, m
          9   -8.191E-01                                 F               0         Tower Z translation displacement, node 3, m
         10    2.096E+01                                 F               0         Tower X translation displacement, node 4, m
         11   -3.182E+00                                 F               0         Tower Y translation displacement, node 4, m
         12   -9.918E-01                                 F               0         Tower Z translation displacement, node 4, m
         13    2.296E+01                                 F               0         Tower X translation displacement, node 5, m
         14   -3.777E+00                                 F               0         Tower Y translation displacement, node 5, m
         15   -1.168E+00                                 F               0         Tower Z translation displacement, node 5, m
         16    2.497E+01                                 F               0         Tower X translation displacement, node 6, m
         17   -4.375E+00                                 F               0         Tower Y translation displacement, node 6, m
         18   -1.348E+00                                 F               0         Tower Z translation displacement, node 6, m
         19    2.699E+01                                 F               0         Tower X translation displacement, node 7, m
         20   -4.975E+00                                 F               0         Tower Y translation displacement, node 7, m
         21   -1.530E+00                                 F               0         Tower Z translation displacement, node 7, m
         22    2.903E+01                                 F               0         Tower X translation displacement, node 8, m
         23   -5.578E+00                                 F               0         Tower Y translation displacement, node 8, m
         24   -1.714E+00                                 F               0         Tower Z translation displacement, node 8, m
         25    3.108E+01                                 F               0         Tower X translation displacement, node 9, m
         26   -6.182E+00                                 F               0         Tower Y translation displacement, node 9, m
         27   -1.900E+00                                 F               0         Tower Z translation displacement, node 9, m
         28    3.313E+01                                 F               0         Tower X translation displacement, node 10, m
         29   -6.787E+00                                 F               0         Tower Y translation displacement, node 10, m
         30   -2.086E+00                                 F               0         Tower Z translation displacement, node 10, m
         31    3.518E+01                                 F               0         Tower X translation displacement, node 11, m
         32   -7.393E+00                                 F               0         Tower Y translation displacement, node 11, m
         33   -2.273E+00                                 F               0         Tower Z translation displacement, node 11, m
         34    9.881E-01, -3.535E-03, -1.540E-01         F               0         Tower X orientation angle, node 1, rad
         35    1.070E-02,  9.989E-01,  4.576E-02         F               0         Tower Y orientation angle, node 1, rad
         36    1.537E-01, -4.686E-02,  9.870E-01         F               0         Tower Z orientation angle, node 1, rad
         37    9.877E-01, -3.411E-03, -1.566E-01         F               0         Tower X orientation angle, node 2, rad
         38    1.077E-02,  9.989E-01,  4.616E-02         F               0         Tower Y orientation angle, node 2, rad
         39    1.563E-01, -4.728E-02,  9.866E-01         F               0         Tower Z orientation angle, node 2, rad
         40    9.873E-01, -3.301E-03, -1.589E-01         F               0         Tower X orientation angle, node 3, rad
         41    1.083E-02,  9.989E-01,  4.653E-02         F               0         Tower Y orientation angle, node 3, rad
         42    1.585E-01, -4.765E-02,  9.862E-01         F               0         Tower Z orientation angle, node 3, rad
         43    9.870E-01, -3.206E-03, -1.608E-01         F               0         Tower X orientation angle, node 4, rad
         44    1.088E-02,  9.988E-01,  4.684E-02         F               0         Tower Y orientation angle, node 4, rad
         45    1.605E-01, -4.798E-02,  9.859E-01         F               0         Tower Z orientation angle, node 4, rad
         46    9.867E-01, -3.126E-03, -1.625E-01         F               0         Tower X orientation angle, node 5, rad
         47    1.092E-02,  9.988E-01,  4.712E-02         F               0         Tower Y orientation angle, node 5, rad
         48    1.621E-01, -4.826E-02,  9.856E-01         F               0         Tower Z orientation angle, node 5, rad
         49    9.865E-01, -3.061E-03, -1.638E-01         F               0         Tower X orientation angle, node 6, rad
         50    1.096E-02,  9.988E-01,  4.734E-02         F               0         Tower Y orientation angle, node 6, rad
         51    1.635E-01, -4.850E-02,  9.854E-01         F               0         Tower Z orientation angle, node 6, rad
         52    9.863E-01, -3.010E-03, -1.648E-01         F               0         Tower X orientation angle, node 7, rad
         53    1.099E-02,  9.988E-01,  4.753E-02         F               0         Tower Y orientation angle, node 7, rad
         54    1.645E-01, -4.869E-02,  9.852E-01         F               0         Tower Z orientation angle, node 7, rad
         55    9.862E-01, -2.972E-03, -1.656E-01         F               0         Tower X orientation angle, node 8, rad
         56    1.101E-02,  9.988E-01,  4.767E-02         F               0         Tower Y orientation angle, node 8, rad
         57    1.652E-01, -4.883E-02,  9.850E-01         F               0         Tower Z orientation angle, node 8, rad
         58    9.861E-01, -2.945E-03, -1.661E-01         F               0         Tower X orientation angle, node 9, rad
         59    1.103E-02,  9.988E-01,  4.777E-02         F               0         Tower Y orientation angle, node 9, rad
         60    1.658E-01, -4.894E-02,  9.849E-01         F               0         Tower Z orientation angle, node 9, rad
         61    9.860E-01, -2.928E-03, -1.665E-01         F               0         Tower X orientation angle, node 10, rad
         62    1.104E-02,  9.988E-01,  4.784E-02         F               0         Tower Y orientation angle, node 10, rad
         63    1.661E-01, -4.901E-02,  9.849E-01         F               0         Tower Z orientation angle, node 10, rad
         64    9.860E-01, -2.919E-03, -1.666E-01         F               0         Tower X orientation angle, node 11, rad
         65    1.105E-02,  9.988E-01,  4.788E-02         F               0         Tower Y orientation angle, node 11, rad
         66    1.663E-01, -4.905E-02,  9.849E-01         F               0         Tower Z orientation angle, node 11, rad
         67    3.720E-04                                 F               0         Tower X translation velocity, node 1, m/s
         68    6.437E-04                                 F               0         Tower Y translation velocity, node 1, m/s
         69    4.621E-03                                 F               0         Tower Z translation velocity, node 1, m/s
         70    4.967E-04                                 F               0         Tower X translation velocity, node 2, m/s
         71    1.063E-03                                 F               0         Tower Y translation velocity, node 2, m/s
         72    4.622E-03                                 F               0         Tower Z translation velocity, node 2, m/s
         73    6.421E-04                                 F               0         Tower X translation velocity, node 3, m/s
         74    1.443E-03                                 F               0         Tower Y translation velocity, node 3, m/s
         75    4.617E-03                                 F               0         Tower Z translation velocity, node 3, m/s
         76    8.010E-04                                 F               0         Tower X translation velocity, node 4, m/s
         77    1.789E-03                                 F               0         Tower Y translation velocity, node 4, m/s
         78    4.608E-03                                 F               0         Tower Z translation velocity, node 4, m/s
         79    9.689E-04                                 F               0         Tower X translation velocity, node 5, m/s
         80    2.105E-03                                 F               0         Tower Y translation velocity, node 5, m/s
         81    4.596E-03                                 F               0         Tower Z translation velocity, node 5, m/s
         82    1.142E-03                                 F               0         Tower X translation velocity, node 6, m/s
         83    2.392E-03                                 F               0         Tower Y translation velocity, node 6, m/s
         84    4.581E-03                                 F               0         Tower Z translation velocity, node 6, m/s
         85    1.317E-03                                 F               0         Tower X translation velocity, node 7, m/s
         86    2.655E-03                                 F               0         Tower Y translation velocity, node 7, m/s
         87    4.565E-03                                 F               0         Tower Z translation velocity, node 7, m/s
         88    1.491E-03                                 F               0         Tower X translation velocity, node 8, m/s
         89    2.896E-03                                 F               0         Tower Y translation velocity, node 8, m/s
         90    4.548E-03                                 F               0         Tower Z translation velocity, node 8, m/s
         91    1.664E-03                                 F               0         Tower X translation velocity, node 9, m/s
         92    3.119E-03                                 F               0         Tower Y translation velocity, node 9, m/s
         93    4.530E-03                                 F               0         Tower Z translation velocity, node 9, m/s
         94    1.835E-03                                 F               0         Tower X translation velocity, node 10, m/s
         95    3.328E-03                                 F               0         Tower Y translation velocity, node 10, m/s
         96    4.512E-03                                 F               0         Tower Z translation velocity, node 10, m/s
         97    2.003E-03                                 F               0         Tower X translation velocity, node 11, m/s
         98    3.529E-03                                 F               0         Tower Y translation velocity, node 11, m/s
         99    4.493E-03                                 F               0         Tower Z translation velocity, node 11, m/s
        100    3.664E+01                                 F               0         Hub X translation displacement, node 1, m
        101   -7.746E+00                                 F               0         Hub Y translation displacement, node 1, m
        102   -5.921E-01                                 F               0         Hub Z translation displacement, node 1, m
        103    9.632E-01,  2.224E-03, -2.687E-01         F               0         Hub X orientation angle, node 1, rad
        104    2.646E-01, -1.808E-01,  9.473E-01         F               0         Hub Y orientation angle, node 1, rad
        105   -4.647E-02, -9.835E-01, -1.747E-01         F               0         Hub Z orientation angle, node 1, rad
        106    1.004E+00                                 F               0         Hub X rotation velocity, node 1, rad/s
        107    2.331E-03                                 F               0         Hub Y rotation velocity, node 1, rad/s
        108   -2.799E-01                                 F               0         Hub Z rotation velocity, node 1, rad/s
        109    9.550E-01,  7.586E-03, -2.967E-01         F               0         Blade root 1 X orientation angle, node 1, rad
        110    2.931E-01, -1.806E-01,  9.389E-01         F               0         Blade root 1 Y orientation angle, node 1, rad
        111   -4.647E-02, -9.835E-01, -1.747E-01         F               0         Blade root 1 Z orientation angle, node 1, rad
        112    9.679E-01,  2.481E-02, -2.500E-01         F               0         Blade root 2 X orientation angle, node 1, rad
        113   -1.439E-01, -7.610E-01, -6.326E-01         F               0         Blade root 2 Y orientation angle, node 1, rad
        114   -2.059E-01,  6.483E-01, -7.330E-01         F               0         Blade root 2 Z orientation angle, node 1, rad
        115    9.655E-01, -2.573E-02, -2.590E-01         F               0         Blade root 3 X orientation angle, node 1, rad
        116   -6.346E-02,  9.418E-01, -3.301E-01         F               0         Blade root 3 Y orientation angle, node 1, rad
        117    2.524E-01,  3.352E-01,  9.077E-01         F               0         Blade root 3 Z orientation angle, node 1, rad
        118    3.580E+01                                 F               0         Blade 1 X translation displacement, node 1, m
        119   -1.319E+01                                 F               0         Blade 1 Y translation displacement, node 1, m
        120   -7.070E+00                                 F               0         Blade 1 Z translation displacement, node 1, m
        121    3.560E+01                                 F               0         Blade 1 X translation displacement, node 2, m
        122   -1.451E+01                                 F               0         Blade 1 Y translation displacement, node 2, m
        123   -8.631E+00                                 F               0         Blade 1 Z translation displacement, node 2, m
        124    3.286E+01                                 F               0         Blade 1 X translation displacement, node 3, m
        125   -3.236E+01                                 F               0         Blade 1 Y translation displacement, node 3, m
        126   -2.986E+01                                 F               0         Blade 1 Z translation displacement, node 3, m
        127    3.227E+01                                 F               0         Blade 1 X translation displacement, node 4, m
        128   -3.616E+01                                 F               0         Blade 1 Y translation displacement, node 4, m
        129   -3.438E+01                                 F               0         Blade 1 Z translation displacement, node 4, m
        130    3.169E+01                                 F               0         Blade 1 X translation displacement, node 5, m
        131   -3.997E+01                                 F               0         Blade 1 Y translation displacement, node 5, m
        132   -3.890E+01                                 F               0         Blade 1 Z translation displacement, node 5, m
        133    3.111E+01                                 F               0         Blade 1 X translation displacement, node 6, m
        134   -4.377E+01                                 F               0         Blade 1 Y translation displacement, node 6, m
        135   -4.342E+01                                 F               0         Blade 1 Z translation displacement, node 6, m
        136    3.052E+01                                 F               0         Blade 1 X translation displacement, node 7, m
        137   -4.758E+01                                 F               0         Blade 1 Y translation displacement, node 7, m
        138   -4.794E+01                                 F               0         Blade 1 Z translation displacement, node 7, m
        139    2.994E+01                                 F               0         Blade 1 X translation displacement, node 8, m
        140   -5.138E+01                                 F               0         Blade 1 Y translation displacement, node 8, m
        141   -5.247E+01                                 F               0         Blade 1 Z translation displacement, node 8, m
        142    2.935E+01                                 F               0         Blade 1 X translation displacement, node 9, m
        143   -5.519E+01                                 F               0         Blade 1 Y translation displacement, node 9, m
        144   -5.699E+01                                 F               0         Blade 1 Z translation displacement, node 9, m
        145    2.877E+01                                 F               0         Blade 1 X translation displacement, node 10, m
        146   -5.899E+01                                 F               0         Blade 1 Y translation displacement, node 10, m
        147   -6.151E+01                                 F               0         Blade 1 Z translation displacement, node 10, m
        148    2.819E+01                                 F               0         Blade 1 X translation displacement, node 11, m
        149   -6.279E+01                                 F               0         Blade 1 Y translation displacement, node 11, m
        150   -6.603E+01                                 F               0         Blade 1 Z translation displacement, node 11, m
        151    2.760E+01                                 F               0         Blade 1 X translation displacement, node 12, m
        152   -6.660E+01                                 F               0         Blade 1 Y translation displacement, node 12, m
        153   -7.056E+01                                 F               0         Blade 1 Z translation displacement, node 12, m
        154    2.702E+01                                 F               0         Blade 1 X translation displacement, node 13, m
        155   -7.040E+01                                 F               0         Blade 1 Y translation displacement, node 13, m
        156   -7.508E+01                                 F               0         Blade 1 Z translation displacement, node 13, m
        157    2.643E+01                                 F               0         Blade 1 X translation displacement, node 14, m
        158   -7.420E+01                                 F               0         Blade 1 Y translation displacement, node 14, m
        159   -7.960E+01                                 F               0         Blade 1 Z translation displacement, node 14, m
        160    2.585E+01                                 F               0         Blade 1 X translation displacement, node 15, m
        161   -7.801E+01                                 F               0         Blade 1 Y translation displacement, node 15, m
        162   -8.412E+01                                 F               0         Blade 1 Z translation displacement, node 15, m
        163    2.527E+01                                 F               0         Blade 1 X translation displacement, node 16, m
        164   -8.181E+01                                 F               0         Blade 1 Y translation displacement, node 16, m
        165   -8.865E+01                                 F               0         Blade 1 Z translation displacement, node 16, m
        166    2.468E+01                                 F               0         Blade 1 X translation displacement, node 17, m
        167   -8.562E+01                                 F               0         Blade 1 Y translation displacement, node 17, m
        168   -9.317E+01                                 F               0         Blade 1 Z translation displacement, node 17, m
        169    2.410E+01                                 F               0         Blade 1 X translation displacement, node 18, m
        170   -8.942E+01                                 F               0         Blade 1 Y translation displacement, node 18, m
        171   -9.769E+01                                 F               0         Blade 1 Z translation displacement, node 18, m
        172    2.351E+01                                 F               0         Blade 1 X translation displacement, node 19, m
        173   -9.322E+01                                 F               0         Blade 1 Y translation displacement, node 19, m
        174   -1.022E+02                                 F               0         Blade 1 Z translation displacement, node 19, m
        175    2.293E+01                                 F               0         Blade 1 X translation displacement, node 20, m
        176   -9.703E+01                                 F               0         Blade 1 Y translation displacement, node 20, m
        177   -1.067E+02                                 F               0         Blade 1 Z translation displacement, node 20, m
        178    2.235E+01                                 F               0         Blade 1 X translation displacement, node 21, m
        179   -1.008E+02                                 F               0         Blade 1 Y translation displacement, node 21, m
        180   -1.113E+02                                 F               0         Blade 1 Z translation displacement, node 21, m
        181    2.176E+01                                 F               0         Blade 1 X translation displacement, node 22, m
        182   -1.046E+02                                 F               0         Blade 1 Y translation displacement, node 22, m
        183   -1.158E+02                                 F               0         Blade 1 Z translation displacement, node 22, m
        184    2.118E+01                                 F               0         Blade 1 X translation displacement, node 23, m
        185   -1.084E+02                                 F               0         Blade 1 Y translation displacement, node 23, m
        186   -1.203E+02                                 F               0         Blade 1 Z translation displacement, node 23, m
        187    2.059E+01                                 F               0         Blade 1 X translation displacement, node 24, m
        188   -1.122E+02                                 F               0         Blade 1 Y translation displacement, node 24, m
        189   -1.248E+02                                 F               0         Blade 1 Z translation displacement, node 24, m
        190    2.001E+01                                 F               0         Blade 1 X translation displacement, node 25, m
        191   -1.160E+02                                 F               0         Blade 1 Y translation displacement, node 25, m
        192   -1.293E+02                                 F               0         Blade 1 Z translation displacement, node 25, m
        193    1.943E+01                                 F               0         Blade 1 X translation displacement, node 26, m
        194   -1.199E+02                                 F               0         Blade 1 Y translation displacement, node 26, m
        195   -1.339E+02                                 F               0         Blade 1 Z translation displacement, node 26, m
        196    1.884E+01                                 F               0         Blade 1 X translation displacement, node 27, m
        197   -1.237E+02                                 F               0         Blade 1 Y translation displacement, node 27, m
        198   -1.384E+02                                 F               0         Blade 1 Z translation displacement, node 27, m
        199    1.835E+01                                 F               0         Blade 1 X translation displacement, node 28, m
        200   -1.269E+02                                 F               0         Blade 1 Y translation displacement, node 28, m
        201   -1.422E+02                                 F               0         Blade 1 Z translation displacement, node 28, m
        202    7.162E-01,  8.913E-02, -6.921E-01         F               0         Blade 1 X orientation angle, node 1, rad
        203    6.963E-01, -1.573E-01,  7.003E-01         F               0         Blade 1 Y orientation angle, node 1, rad
        204   -4.647E-02, -9.835E-01, -1.747E-01         F               0         Blade 1 Z orientation angle, node 1, rad
        205    7.162E-01,  8.913E-02, -6.921E-01         F               0         Blade 1 X orientation angle, node 2, rad
        206    6.963E-01, -1.573E-01,  7.003E-01         F               0         Blade 1 Y orientation angle, node 2, rad
        207   -4.647E-02, -9.835E-01, -1.747E-01         F               0         Blade 1 Z orientation angle, node 2, rad
        208    8.609E-01,  4.931E-02, -5.065E-01         F               0         Blade 1 X orientation angle, node 3, rad
        209    5.067E-01, -1.740E-01,  8.444E-01         F               0         Blade 1 Y orientation angle, node 3, rad
        210   -4.647E-02, -9.835E-01, -1.747E-01         F               0         Blade 1 Z orientation angle, node 3, rad
        211    8.815E-01,  4.192E-02, -4.703E-01         F               0         Blade 1 X orientation angle, node 4, rad
        212    4.699E-01, -1.759E-01,  8.650E-01         F               0         Blade 1 Y orientation angle, node 4, rad
        213   -4.647E-02, -9.835E-01, -1.747E-01         F               0         Blade 1 Z orientation angle, node 4, rad
        214    8.966E-01,  3.606E-02, -4.414E-01         F               0         Blade 1 X orientation angle, node 5, rad
        215    4.404E-01, -1.772E-01,  8.801E-01         F               0         Blade 1 Y orientation angle, node 5, rad
        216   -4.647E-02, -9.835E-01, -1.747E-01         F               0         Blade 1 Z orientation angle, node 5, rad
        217    9.079E-01,  3.135E-02, -4.179E-01         F               0         Blade 1 X orientation angle, node 6, rad
        218    4.165E-01, -1.781E-01,  8.915E-01         F               0         Blade 1 Y orientation angle, node 6, rad
        219   -4.647E-02, -9.835E-01, -1.747E-01         F               0         Blade 1 Z orientation angle, node 6, rad
        220    9.168E-01,  2.746E-02, -3.984E-01         F               0         Blade 1 X orientation angle, node 7, rad
        221    3.966E-01, -1.787E-01,  9.004E-01         F               0         Blade 1 Y orientation angle, node 7, rad
        222   -4.647E-02, -9.835E-01, -1.747E-01         F               0         Blade 1 Z orientation angle, node 7, rad
        223    9.239E-01,  2.421E-02, -3.820E-01         F               0         Blade 1 X orientation angle, node 8, rad
        224    3.799E-01, -1.792E-01,  9.075E-01         F               0         Blade 1 Y orientation angle, node 8, rad
        225   -4.647E-02, -9.835E-01, -1.747E-01         F               0         Blade 1 Z orientation angle, node 8, rad
        226    9.296E-01,  2.145E-02, -3.680E-01         F               0         Blade 1 X orientation angle, node 9, rad
        227    3.657E-01, -1.795E-01,  9.133E-01         F               0         Blade 1 Y orientation angle, node 9, rad