
Linearized model: Predictions were generated on 06-Feb-2024 at 16:18:08 using OpenFAST, compiled as a 64-bit application using single precision at commit v3.5.1
 linked with  NWTC Subroutine Library; ElastoDyn; InflowWind; AeroDyn; ServoDyn; HydroDyn; MAP++ (<1.20.10>, <Oct-20-2023>)

Description from the FAST input file: CCT-9 Campign 4 model. Input files to be run with OpenFAST 3.5.0. GitHub branch from Lu Wang (https://github.com/luwang00/openfast/tree/dev) compiled on March 7, 2023.

Simulation information:
   Simulation time:                  1003.9750 s
   Rotor Speed:                         1.0420 rad/s
   Azimuth:                             5.6425 rad
   Wind Speed:                         12.0000 m/s
   Number of continuous states:        18
   Number of discrete states:           0
   Number of constraint states:         0
   Number of inputs:                 1890
   Number of outputs:                  19
   Jacobians included in this file?    No

Order of continuous states:
   Row/Column Operating Point                     Rotating Frame? Derivative Order Description
   ---------- ---------------                     --------------- ---------------- -----------
          1    1.231E+01                                 F               2         Platform horizontal surge translation DOF (internal DOF index = DOF_Sg), m
          2   -2.572E-01                                 F               2         Platform vertical heave translation DOF (internal DOF index = DOF_Hv), m
          3    4.698E-02                                 F               2         Platform roll tilt rotation DOF (internal DOF index = DOF_R), rad
          4    1.559E-01                                 F               2         Platform pitch tilt rotation DOF (internal DOF index = DOF_P), rad
          5    1.079E+00                                 F               2         1st tower fore-aft bending mode DOF (internal DOF index = DOF_TFA1), m
          6    1.738E-01                                 F               2         1st tower side-to-side bending mode DOF (internal DOF index = DOF_TSS1), m
          7    1.607E-03                                 F               2         2nd tower fore-aft bending mode DOF (internal DOF index = DOF_TFA2), m
          8    8.018E-05                                 F               2         2nd tower side-to-side bending mode DOF (internal DOF index = DOF_TSS2), m
          9    4.072E+00                                 F               2         Variable speed generator DOF (internal DOF index = DOF_GeAz), rad
         10   -4.425E-05                                 F               2         First time derivative of Platform horizontal surge translation DOF (internal DOF index = DOF_Sg), m/s
         11    1.722E-03                                 F               2         First time derivative of Platform vertical heave translation DOF (internal DOF index = DOF_Hv), m/s
         12    7.517E-06                                 F               2         First time derivative of Platform roll tilt rotation DOF (internal DOF index = DOF_R), rad/s
         13   -5.697E-06                                 F               2         First time derivative of Platform pitch tilt rotation DOF (internal DOF index = DOF_P), rad/s
         14   -2.144E-05                                 F               2         First time derivative of 1st tower fore-aft bending mode DOF (internal DOF index = DOF_TFA1), m/s
         15   -6.122E-04                                 F               2         First time derivative of 1st tower side-to-side bending mode DOF (internal DOF index = DOF_TSS1), m/s
         16   -1.017E-05                                 F               2         First time derivative of 2nd tower fore-aft bending mode DOF (internal DOF index = DOF_TFA2), m/s
         17   -7.947E-07                                 F               2         First time derivative of 2nd tower side-to-side bending mode DOF (internal DOF index = DOF_TSS2), m/s
         18    1.042E+00                                 F               2         First time derivative of Variable speed generator DOF (internal DOF index = DOF_GeAz), rad/s

Order of continuous state derivatives:
   Row/Column Operating Point                     Rotating Frame? Derivative Order Description
   ---------- ---------------                     --------------- ---------------- -----------
          1   -4.425E-05                                 F               2         First time derivative of Platform horizontal surge translation DOF (internal DOF index = DOF_Sg), m/s
          2    1.722E-03                                 F               2         First time derivative of Platform vertical heave translation DOF (internal DOF index = DOF_Hv), m/s
          3    7.517E-06                                 F               2         First time derivative of Platform roll tilt rotation DOF (internal DOF index = DOF_R), rad/s
          4   -5.697E-06                                 F               2         First time derivative of Platform pitch tilt rotation DOF (internal DOF index = DOF_P), rad/s
          5   -2.144E-05                                 F               2         First time derivative of 1st tower fore-aft bending mode DOF (internal DOF index = DOF_TFA1), m/s
          6   -6.122E-04                                 F               2         First time derivative of 1st tower side-to-side bending mode DOF (internal DOF index = DOF_TSS1), m/s
          7   -1.017E-05                                 F               2         First time derivative of 2nd tower fore-aft bending mode DOF (internal DOF index = DOF_TFA2), m/s
          8   -7.947E-07                                 F               2         First time derivative of 2nd tower side-to-side bending mode DOF (internal DOF index = DOF_TSS2), m/s
          9    1.042E+00                                 F               2         First time derivative of Variable speed generator DOF (internal DOF index = DOF_GeAz), rad/s
         10   -3.573E-04                                 F               2         First time derivative of First time derivative of Platform horizontal surge translation DOF (internal DOF index = DOF_Sg), m/s/s
         11    1.376E-03                                 F               2         First time derivative of First time derivative of Platform vertical heave translation DOF (internal DOF index = DOF_Hv), m/s/s
         12   -4.378E-05                                 F               2         First time derivative of First time derivative of Platform roll tilt rotation DOF (internal DOF index = DOF_R), rad/s/s
         13   -1.785E-05                                 F               2         First time derivative of First time derivative of Platform pitch tilt rotation DOF (internal DOF index = DOF_P), rad/s/s
         14    5.798E-03                                 F               2         First time derivative of First time derivative of 1st tower fore-aft bending mode DOF (internal DOF index = DOF_TFA1), m/s/s
         15    1.546E-03                                 F               2         First time derivative of First time derivative of 1st tower side-to-side bending mode DOF (internal DOF index = DOF_TSS1), m/s/s
         16    1.664E-05                                 F               2         First time derivative of First time derivative of 2nd tower fore-aft bending mode DOF (internal DOF index = DOF_TFA2), m/s/s
         17   -5.170E-06                                 F               2         First time derivative of First time derivative of 2nd tower side-to-side bending mode DOF (internal DOF index = DOF_TSS2), m/s/s
         18   -1.412E-04                                 F               2         First time derivative of First time derivative of Variable speed generator DOF (internal DOF index = DOF_GeAz), rad/s/s

Order of inputs:
     Column   Operating Point                     Rotating Frame? Derivative Order Description
   ---------- ---------------                     --------------- ---------------- -----------
          1    8.267E+01                                 F               0         Blade 1 X force, node 1, N
          2    5.544E+01                                 F               0         Blade 1 Y force, node 1, N
          3   -6.158E+01                                 F               0         Blade 1 Z force, node 1, N
          4    3.831E+02                                 F               0         Blade 1 X force, node 2, N
          5    1.147E+02                                 F               0         Blade 1 Y force, node 2, N
          6   -1.862E+02                                 F               0         Blade 1 Z force, node 2, N
          7    5.325E+02                                 F               0         Blade 1 X force, node 3, N
          8    5.084E+01                                 F               0         Blade 1 Y force, node 3, N
          9   -1.831E+02                                 F               0         Blade 1 Z force, node 3, N
         10    7.227E+02                                 F               0         Blade 1 X force, node 4, N
         11   -1.062E-01                                 F               0         Blade 1 Y force, node 4, N
         12   -2.003E+02                                 F               0         Blade 1 Z force, node 4, N
         13    9.129E+02                                 F               0         Blade 1 X force, node 5, N
         14   -5.105E+01                                 F               0         Blade 1 Y force, node 5, N
         15   -2.176E+02                                 F               0         Blade 1 Z force, node 5, N
         16    1.103E+03                                 F               0         Blade 1 X force, node 6, N
         17   -1.020E+02                                 F               0         Blade 1 Y force, node 6, N
         18   -2.348E+02                                 F               0         Blade 1 Z force, node 6, N
         19    1.293E+03                                 F               0         Blade 1 X force, node 7, N
         20   -1.529E+02                                 F               0         Blade 1 Y force, node 7, N
         21   -2.520E+02                                 F               0         Blade 1 Z force, node 7, N
         22    1.483E+03                                 F               0         Blade 1 X force, node 8, N
         23   -2.039E+02                                 F               0         Blade 1 Y force, node 8, N
         24   -2.692E+02                                 F               0         Blade 1 Z force, node 8, N
         25    1.674E+03                                 F               0         Blade 1 X force, node 9, N
         26   -2.548E+02                                 F               0         Blade 1 Y force, node 9, N
         27   -2.864E+02                                 F               0         Blade 1 Z force, node 9, N
         28    1.864E+03                                 F               0         Blade 1 X force, node 10, N
         29   -3.058E+02                                 F               0         Blade 1 Y force, node 10, N
         30   -3.037E+02                                 F               0         Blade 1 Z force, node 10, N
         31    2.054E+03                                 F               0         Blade 1 X force, node 11, N
         32   -3.567E+02                                 F               0         Blade 1 Y force, node 11, N
         33   -3.209E+02                                 F               0         Blade 1 Z force, node 11, N
         34    2.244E+03                                 F               0         Blade 1 X force, node 12, N
         35   -4.076E+02                                 F               0         Blade 1 Y force, node 12, N
         36   -3.381E+02                                 F               0         Blade 1 Z force, node 12, N
         37    2.434E+03                                 F               0         Blade 1 X force, node 13, N
         38   -4.586E+02                                 F               0         Blade 1 Y force, node 13, N
         39   -3.553E+02                                 F               0         Blade 1 Z force, node 13, N
         40    2.625E+03                                 F               0         Blade 1 X force, node 14, N
         41   -5.095E+02                                 F               0         Blade 1 Y force, node 14, N
         42   -3.726E+02                                 F               0         Blade 1 Z force, node 14, N
         43    2.815E+03                                 F               0         Blade 1 X force, node 15, N
         44   -5.605E+02                                 F               0         Blade 1 Y force, node 15, N
         45   -3.898E+02                                 F               0         Blade 1 Z force, node 15, N
         46    3.005E+03                                 F               0         Blade 1 X force, node 16, N
         47   -6.114E+02                                 F               0         Blade 1 Y force, node 16, N
         48   -4.070E+02                                 F               0         Blade 1 Z force, node 16, N
         49    3.705E+03                                 F               0         Blade 1 X force, node 17, N
         50   -7.647E+02                                 F               0         Blade 1 Y force, node 17, N
         51   -4.943E+02                                 F               0         Blade 1 Z force, node 17, N
         52    2.831E+03                                 F               0         Blade 1 X force, node 18, N
         53   -5.625E+02                                 F               0         Blade 1 Y force, node 18, N
         54   -3.929E+02                                 F               0         Blade 1 Z force, node 18, N
         55    3.476E+03                                 F               0         Blade 1 X force, node 19, N
         56   -6.547E+02                                 F               0         Blade 1 Y force, node 19, N
         57   -5.074E+02                                 F               0         Blade 1 Z force, node 19, N
         58    2.965E+03                                 F               0         Blade 1 X force, node 20, N
         59   -5.302E+02                                 F               0         Blade 1 Y force, node 20, N
         60   -4.524E+02                                 F               0         Blade 1 Z force, node 20, N
         61    4.380E+03                                 F               0         Blade 1 X force, node 21, N
         62   -7.371E+02                                 F               0         Blade 1 Y force, node 21, N
         63   -7.007E+02                                 F               0         Blade 1 Z force, node 21, N
         64    3.868E+03                                 F               0         Blade 1 X force, node 22, N
         65   -6.123E+02                                 F               0         Blade 1 Y force, node 22, N
         66   -6.457E+02                                 F               0         Blade 1 Z force, node 22, N
         67    3.974E+03                                 F               0         Blade 1 X force, node 23, N
         68   -5.946E+02                                 F               0         Blade 1 Y force, node 23, N
         69   -6.875E+02                                 F               0         Blade 1 Z force, node 23, N
         70    4.152E+03                                 F               0         Blade 1 X force, node 24, N
         71   -5.871E+02                                 F               0         Blade 1 Y force, node 24, N
         72   -7.420E+02                                 F               0         Blade 1 Z force, node 24, N
         73    4.257E+03                                 F               0         Blade 1 X force, node 25, N
         74   -5.692E+02                                 F               0         Blade 1 Y force, node 25, N
         75   -7.836E+02                                 F               0         Blade 1 Z force, node 25, N
         76    4.386E+03                                 F               0         Blade 1 X force, node 26, N
         77   -5.548E+02                                 F               0         Blade 1 Y force, node 26, N
         78   -8.294E+02                                 F               0         Blade 1 Z force, node 26, N
         79    5.258E+03                                 F               0         Blade 1 X force, node 27, N
         80   -6.271E+02                                 F               0         Blade 1 Y force, node 27, N
         81   -1.021E+03                                 F               0         Blade 1 Z force, node 27, N
         82    3.900E+03                                 F               0         Blade 1 X force, node 28, N
         83   -4.390E+02                                 F               0         Blade 1 Y force, node 28, N
         84   -7.753E+02                                 F               0         Blade 1 Z force, node 28, N
         85    4.772E+03                                 F               0         Blade 1 X force, node 29, N
         86   -5.115E+02                                 F               0         Blade 1 Y force, node 29, N
         87   -9.668E+02                                 F               0         Blade 1 Z force, node 29, N
         88    4.061E+03                                 F               0         Blade 1 X force, node 30, N
         89   -4.145E+02                                 F               0         Blade 1 Y force, node 30, N
         90   -8.373E+02                                 F               0         Blade 1 Z force, node 30, N
         91    5.870E+03                                 F               0         Blade 1 X force, node 31, N
         92   -5.654E+02                                 F               0         Blade 1 Y force, node 31, N
         93   -1.234E+03                                 F               0         Blade 1 Z force, node 31, N
         94    5.159E+03                                 F               0         Blade 1 X force, node 32, N
         95   -4.684E+02                                 F               0         Blade 1 Y force, node 32, N
         96   -1.104E+03                                 F               0         Blade 1 Z force, node 32, N
         97    5.287E+03                                 F               0         Blade 1 X force, node 33, N
         98   -4.540E+02                                 F               0         Blade 1 Y force, node 33, N
         99   -1.149E+03                                 F               0         Blade 1 Z force, node 33, N
        100    5.416E+03                                 F               0         Blade 1 X force, node 34, N
        101   -4.397E+02                                 F               0         Blade 1 Y force, node 34, N
        102   -1.195E+03                                 F               0         Blade 1 Z force, node 34, N
        103    5.545E+03                                 F               0         Blade 1 X force, node 35, N
        104   -4.254E+02                                 F               0         Blade 1 Y force, node 35, N
        105   -1.241E+03                                 F               0         Blade 1 Z force, node 35, N
        106    5.673E+03                                 F               0         Blade 1 X force, node 36, N
        107   -4.111E+02                                 F               0         Blade 1 Y force, node 36, N
        108   -1.286E+03                                 F               0         Blade 1 Z force, node 36, N
        109    6.788E+03                                 F               0         Blade 1 X force, node 37, N
        110   -4.626E+02                                 F               0         Blade 1 Y force, node 37, N
        111   -1.560E+03                                 F               0         Blade 1 Z force, node 37, N
        112    4.945E+03                                 F               0         Blade 1 X force, node 38, N
        113   -3.170E+02                                 F               0         Blade 1 Y force, node 38, N
        114   -1.150E+03                                 F               0         Blade 1 Z force, node 38, N
        115    6.061E+03                                 F               0         Blade 1 X force, node 39, N
        116   -3.686E+02                                 F               0         Blade 1 Y force, node 39, N
        117   -1.424E+03                                 F               0         Blade 1 Z force, node 39, N
        118    5.169E+03                                 F               0         Blade 1 X force, node 40, N
        119   -2.980E+02                                 F               0         Blade 1 Y force, node 40, N
        120   -1.226E+03                                 F               0         Blade 1 Z force, node 40, N
        121    7.343E+03                                 F               0         Blade 1 X force, node 41, N
        122   -3.970E+02                                 F               0         Blade 1 Y force, node 41, N
        123   -1.759E+03                                 F               0         Blade 1 Z force, node 41, N
        124    6.449E+03                                 F               0         Blade 1 X force, node 42, N
        125   -3.263E+02                                 F               0         Blade 1 Y force, node 42, N
        126   -1.561E+03                                 F               0         Blade 1 Z force, node 42, N
        127    6.577E+03                                 F               0         Blade 1 X force, node 43, N
        128   -3.121E+02                                 F               0         Blade 1 Y force, node 43, N
        129   -1.606E+03                                 F               0         Blade 1 Z force, node 43, N
        130    6.741E+03                                 F               0         Blade 1 X force, node 44, N
        131   -2.994E+02                                 F               0         Blade 1 Y force, node 44, N
        132   -1.661E+03                                 F               0         Blade 1 Z force, node 44, N
        133    6.799E+03                                 F               0         Blade 1 X force, node 45, N
        134   -2.823E+02                                 F               0         Blade 1 Y force, node 45, N
        135   -1.689E+03                                 F               0         Blade 1 Z force, node 45, N
        136    6.963E+03                                 F               0         Blade 1 X force, node 46, N
        137   -2.697E+02                                 F               0         Blade 1 Y force, node 46, N
        138   -1.743E+03                                 F               0         Blade 1 Z force, node 46, N
        139    8.336E+03                                 F               0         Blade 1 X force, node 47, N
        140   -2.990E+02                                 F               0         Blade 1 Y force, node 47, N
        141   -2.103E+03                                 F               0         Blade 1 Z force, node 47, N
        142    5.976E+03                                 F               0         Blade 1 X force, node 48, N
        143   -1.982E+02                                 F               0         Blade 1 Y force, node 48, N
        144   -1.519E+03                                 F               0         Blade 1 Z force, node 48, N
        145    7.349E+03                                 F               0         Blade 1 X force, node 49, N
        146   -2.275E+02                                 F               0         Blade 1 Y force, node 49, N
        147   -1.879E+03                                 F               0         Blade 1 Z force, node 49, N
        148    6.288E+03                                 F               0         Blade 1 X force, node 50, N
        149   -1.810E+02                                 F               0         Blade 1 Y force, node 50, N
        150   -1.617E+03                                 F               0         Blade 1 Z force, node 50, N
        151    8.795E+03                                 F               0         Blade 1 X force, node 51, N
        152   -2.317E+02                                 F               0         Blade 1 Y force, node 51, N
        153   -2.277E+03                                 F               0         Blade 1 Z force, node 51, N
        154    7.737E+03                                 F               0         Blade 1 X force, node 52, N
        155   -1.855E+02                                 F               0         Blade 1 Y force, node 52, N
        156   -2.016E+03                                 F               0         Blade 1 Z force, node 52, N
        157    7.867E+03                                 F               0         Blade 1 X force, node 53, N
        158   -1.716E+02                                 F               0         Blade 1 Y force, node 53, N
        159   -2.062E+03                                 F               0         Blade 1 Z force, node 53, N
        160    8.086E+03                                 F               0         Blade 1 X force, node 54, N
        161   -1.594E+02                                 F               0         Blade 1 Y force, node 54, N
        162   -2.131E+03                                 F               0         Blade 1 Z force, node 54, N
        163    8.040E+03                                 F               0         Blade 1 X force, node 55, N
        164   -1.422E+02                                 F               0         Blade 1 Y force, node 55, N
        165   -2.130E+03                                 F               0         Blade 1 Z force, node 55, N
        166    8.257E+03                                 F               0         Blade 1 X force, node 56, N
        167   -1.299E+02                                 F               0         Blade 1 Y force, node 56, N
        168   -2.199E+03                                 F               0         Blade 1 Z force, node 56, N
        169    9.905E+03                                 F               0         Blade 1 X force, node 57, N
        170   -1.358E+02                                 F               0         Blade 1 Y force, node 57, N
        171   -2.652E+03                                 F               0         Blade 1 Z force, node 57, N
        172    6.999E+03                                 F               0         Blade 1 X force, node 58, N
        173   -8.242E+01                                 F               0         Blade 1 Y force, node 58, N
        174   -1.884E+03                                 F               0         Blade 1 Z force, node 58, N
        175    8.648E+03                                 F               0         Blade 1 X force, node 59, N
        176   -8.826E+01                                 F               0         Blade 1 Y force, node 59, N
        177   -2.336E+03                                 F               0         Blade 1 Z force, node 59, N
        178    7.434E+03                                 F               0         Blade 1 X force, node 60, N
        179   -6.428E+01                                 F               0         Blade 1 Y force, node 60, N
        180   -2.017E+03                                 F               0         Blade 1 Z force, node 60, N
        181    1.025E+04                                 F               0         Blade 1 X force, node 61, N
        182   -7.056E+01                                 F               0         Blade 1 Y force, node 61, N
        183   -2.793E+03                                 F               0         Blade 1 Z force, node 61, N
        184    9.035E+03                                 F               0         Blade 1 X force, node 62, N
        185   -4.647E+01                                 F               0         Blade 1 Y force, node 62, N
        186   -2.473E+03                                 F               0         Blade 1 Z force, node 62, N
        187    9.163E+03                                 F               0         Blade 1 X force, node 63, N
        188   -3.247E+01                                 F               0         Blade 1 Y force, node 63, N
        189   -2.518E+03                                 F               0         Blade 1 Z force, node 63, N
        190    9.446E+03                                 F               0         Blade 1 X force, node 64, N
        191   -1.874E+01                                 F               0         Blade 1 Y force, node 64, N
        192   -2.606E+03                                 F               0         Blade 1 Z force, node 64, N
        193    9.267E+03                                 F               0         Blade 1 X force, node 65, N
        194   -4.477E+00                                 F               0         Blade 1 Y force, node 65, N
        195   -2.567E+03                                 F               0         Blade 1 Z force, node 65, N
        196    9.554E+03                                 F               0         Blade 1 X force, node 66, N
        197    9.058E+00                                 F               0         Blade 1 Y force, node 66, N