
Linearized model: Predictions were generated on 06-Feb-2024 at 16:18:08 using OpenFAST, compiled as a 64-bit application using single precision at commit v3.5.1
 linked with  NWTC Subroutine Library; ElastoDyn; InflowWind; AeroDyn; ServoDyn; HydroDyn; MAP++ (<1.20.10>, <Oct-20-2023>)

Description from the FAST input file: CCT-9 Campign 4 model. Input files to be run with OpenFAST 3.5.0. GitHub branch from Lu Wang (https://github.com/luwang00/openfast/tree/dev) compiled on March 7, 2023.

Simulation information:
   Simulation time:                  1007.2250 s
   Rotor Speed:                         1.0420 rad/s
   Azimuth:                             2.7454 rad
   Wind Speed:                         12.0000 m/s
   Number of continuous states:        18
   Number of discrete states:           0
   Number of constraint states:         0
   Number of inputs:                 3988
   Number of outputs:                  36
   Jacobians included in this file?    No

Order of continuous states:
   Row/Column Operating Point                     Rotating Frame? Derivative Order Description
   ---------- ---------------                     --------------- ---------------- -----------
          1    1.231E+01                                 F               2         ED Platform horizontal surge translation DOF (internal DOF index = DOF_Sg), m
          2   -2.449E-01                                 F               2         ED Platform vertical heave translation DOF (internal DOF index = DOF_Hv), m
          3    4.690E-02                                 F               2         ED Platform roll tilt rotation DOF (internal DOF index = DOF_R), rad
          4    1.559E-01                                 F               2         ED Platform pitch tilt rotation DOF (internal DOF index = DOF_P), rad
          5    1.081E+00                                 F               2         ED 1st tower fore-aft bending mode DOF (internal DOF index = DOF_TFA1), m
          6    1.776E-01                                 F               2         ED 1st tower side-to-side bending mode DOF (internal DOF index = DOF_TSS1), m
          7    1.612E-03                                 F               2         ED 2nd tower fore-aft bending mode DOF (internal DOF index = DOF_TFA2), m
          8    7.609E-05                                 F               2         ED 2nd tower side-to-side bending mode DOF (internal DOF index = DOF_TSS2), m
          9    1.175E+00                                 F               2         ED Variable speed generator DOF (internal DOF index = DOF_GeAz), rad
         10    3.591E-04                                 F               2         ED First time derivative of Platform horizontal surge translation DOF (internal DOF index = DOF_Sg), m/s
         11    5.172E-03                                 F               2         ED First time derivative of Platform vertical heave translation DOF (internal DOF index = DOF_Hv), m/s
         12    3.831E-06                                 F               2         ED First time derivative of Platform roll tilt rotation DOF (internal DOF index = DOF_R), rad/s
         13    1.851E-05                                 F               2         ED First time derivative of Platform pitch tilt rotation DOF (internal DOF index = DOF_P), rad/s
         14   -1.338E-03                                 F               2         ED First time derivative of 1st tower fore-aft bending mode DOF (internal DOF index = DOF_TFA1), m/s
         15    1.868E-04                                 F               2         ED First time derivative of 1st tower side-to-side bending mode DOF (internal DOF index = DOF_TSS1), m/s
         16    2.285E-06                                 F               2         ED First time derivative of 2nd tower fore-aft bending mode DOF (internal DOF index = DOF_TFA2), m/s
         17    1.651E-06                                 F               2         ED First time derivative of 2nd tower side-to-side bending mode DOF (internal DOF index = DOF_TSS2), m/s
         18    1.042E+00                                 F               2         ED First time derivative of Variable speed generator DOF (internal DOF index = DOF_GeAz), rad/s

Order of continuous state derivatives:
   Row/Column Operating Point                     Rotating Frame? Derivative Order Description
   ---------- ---------------                     --------------- ---------------- -----------
          1    3.591E-04                                 F               2         First time derivative of ED Platform horizontal surge translation DOF (internal DOF index = DOF_Sg), m/s
          2    5.172E-03                                 F               2         First time derivative of ED Platform vertical heave translation DOF (internal DOF index = DOF_Hv), m/s
          3    3.831E-06                                 F               2         First time derivative of ED Platform roll tilt rotation DOF (internal DOF index = DOF_R), rad/s
          4    1.851E-05                                 F               2         First time derivative of ED Platform pitch tilt rotation DOF (internal DOF index = DOF_P), rad/s
          5   -1.338E-03                                 F               2         First time derivative of ED 1st tower fore-aft bending mode DOF (internal DOF index = DOF_TFA1), m/s
          6    1.868E-04                                 F               2         First time derivative of ED 1st tower side-to-side bending mode DOF (internal DOF index = DOF_TSS1), m/s
          7    2.285E-06                                 F               2         First time derivative of ED 2nd tower fore-aft bending mode DOF (internal DOF index = DOF_TFA2), m/s
          8    1.651E-06                                 F               2         First time derivative of ED 2nd tower side-to-side bending mode DOF (internal DOF index = DOF_TSS2), m/s
          9    1.042E+00                                 F               2         First time derivative of ED Variable speed generator DOF (internal DOF index = DOF_GeAz), rad/s
         10    3.392E-04                                 F               2         First time derivative of ED First time derivative of Platform horizontal surge translation DOF (internal DOF index = DOF_Sg), m/s/s
         11    1.376E-04                                 F               2         First time derivative of ED First time derivative of Platform vertical heave translation DOF (internal DOF index = DOF_Hv), m/s/s
         12    4.704E-05                                 F               2         First time derivative of ED First time derivative of Platform roll tilt rotation DOF (internal DOF index = DOF_R), rad/s/s
         13    1.857E-05                                 F               2         First time derivative of ED First time derivative of Platform pitch tilt rotation DOF (internal DOF index = DOF_P), rad/s/s
         14   -5.525E-03                                 F               2         First time derivative of ED First time derivative of 1st tower fore-aft bending mode DOF (internal DOF index = DOF_TFA1), m/s/s
         15   -2.164E-03                                 F               2         First time derivative of ED First time derivative of 1st tower side-to-side bending mode DOF (internal DOF index = DOF_TSS1), m/s/s
         16   -3.255E-05                                 F               2         First time derivative of ED First time derivative of 2nd tower fore-aft bending mode DOF (internal DOF index = DOF_TFA2), m/s/s
         17   -1.299E-06                                 F               2         First time derivative of ED First time derivative of 2nd tower side-to-side bending mode DOF (internal DOF index = DOF_TSS2), m/s/s
         18    1.504E-04                                 F               2         First time derivative of ED First time derivative of Variable speed generator DOF (internal DOF index = DOF_GeAz), rad/s/s

Order of inputs:
     Column   Operating Point                     Rotating Frame? Derivative Order Description
   ---------- ---------------                     --------------- ---------------- -----------
          1   -1.080E+01                                 F               0         IfW X-component position of node 1 (hub), m
          2    0.000E+00                                 F               0         IfW Y-component position of node 1 (hub), m
          3    1.497E+02                                 F               0         IfW Z-component position of node 1 (hub), m
          4    2.444E+01                                 F               0         IfW X-component position of node 2 (blade 1, node 1), m
          5   -9.629E+00                                 F               0         IfW Y-component position of node 2 (blade 1, node 1), m
          6    1.441E+02                                 F               0         IfW Z-component position of node 2 (blade 1, node 1), m
          7    2.411E+01                                 F               0         IfW X-component position of node 3 (blade 1, node 2), m
          8   -1.008E+01                                 F               0         IfW Y-component position of node 3 (blade 1, node 2), m
          9    1.429E+02                                 F               0         IfW Z-component position of node 3 (blade 1, node 2), m
         10    1.953E+01                                 F               0         IfW X-component position of node 4 (blade 1, node 3), m
         11   -1.626E+01                                 F               0         IfW Y-component position of node 4 (blade 1, node 3), m
         12    1.265E+02                                 F               0         IfW Z-component position of node 4 (blade 1, node 3), m
         13    1.856E+01                                 F               0         IfW X-component position of node 5 (blade 1, node 4), m
         14   -1.757E+01                                 F               0         IfW Y-component position of node 5 (blade 1, node 4), m
         15    1.230E+02                                 F               0         IfW Z-component position of node 5 (blade 1, node 4), m
         16    1.759E+01                                 F               0         IfW X-component position of node 6 (blade 1, node 5), m
         17   -1.889E+01                                 F               0         IfW Y-component position of node 6 (blade 1, node 5), m
         18    1.195E+02                                 F               0         IfW Z-component position of node 6 (blade 1, node 5), m
         19    1.661E+01                                 F               0         IfW X-component position of node 7 (blade 1, node 6), m
         20   -2.020E+01                                 F               0         IfW Y-component position of node 7 (blade 1, node 6), m
         21    1.160E+02                                 F               0         IfW Z-component position of node 7 (blade 1, node 6), m
         22    1.564E+01                                 F               0         IfW X-component position of node 8 (blade 1, node 7), m
         23   -2.152E+01                                 F               0         IfW Y-component position of node 8 (blade 1, node 7), m
         24    1.125E+02                                 F               0         IfW Z-component position of node 8 (blade 1, node 7), m
         25    1.466E+01                                 F               0         IfW X-component position of node 9 (blade 1, node 8), m
         26   -2.284E+01                                 F               0         IfW Y-component position of node 9 (blade 1, node 8), m
         27    1.090E+02                                 F               0         IfW Z-component position of node 9 (blade 1, node 8), m
         28    1.369E+01                                 F               0         IfW X-component position of node 10 (blade 1, node 9), m
         29   -2.415E+01                                 F               0         IfW Y-component position of node 10 (blade 1, node 9), m
         30    1.055E+02                                 F               0         IfW Z-component position of node 10 (blade 1, node 9), m
         31    1.271E+01                                 F               0         IfW X-component position of node 11 (blade 1, node 10), m
         32   -2.547E+01                                 F               0         IfW Y-component position of node 11 (blade 1, node 10), m
         33    1.019E+02                                 F               0         IfW Z-component position of node 11 (blade 1, node 10), m
         34    1.174E+01                                 F               0         IfW X-component position of node 12 (blade 1, node 11), m
         35   -2.678E+01                                 F               0         IfW Y-component position of node 12 (blade 1, node 11), m
         36    9.845E+01                                 F               0         IfW Z-component position of node 12 (blade 1, node 11), m
         37    1.076E+01                                 F               0         IfW X-component position of node 13 (blade 1, node 12), m
         38   -2.810E+01                                 F               0         IfW Y-component position of node 13 (blade 1, node 12), m
         39    9.494E+01                                 F               0         IfW Z-component position of node 13 (blade 1, node 12), m
         40    9.790E+00                                 F               0         IfW X-component position of node 14 (blade 1, node 13), m
         41   -2.941E+01                                 F               0         IfW Y-component position of node 14 (blade 1, node 13), m
         42    9.144E+01                                 F               0         IfW Z-component position of node 14 (blade 1, node 13), m
         43    8.816E+00                                 F               0         IfW X-component position of node 15 (blade 1, node 14), m
         44   -3.073E+01                                 F               0         IfW Y-component position of node 15 (blade 1, node 14), m
         45    8.793E+01                                 F               0         IfW Z-component position of node 15 (blade 1, node 14), m
         46    7.841E+00                                 F               0         IfW X-component position of node 16 (blade 1, node 15), m
         47   -3.205E+01                                 F               0         IfW Y-component position of node 16 (blade 1, node 15), m
         48    8.443E+01                                 F               0         IfW Z-component position of node 16 (blade 1, node 15), m
         49    6.867E+00                                 F               0         IfW X-component position of node 17 (blade 1, node 16), m
         50   -3.336E+01                                 F               0         IfW Y-component position of node 17 (blade 1, node 16), m
         51    8.092E+01                                 F               0         IfW Z-component position of node 17 (blade 1, node 16), m
         52    5.893E+00                                 F               0         IfW X-component position of node 18 (blade 1, node 17), m
         53   -3.468E+01                                 F               0         IfW Y-component position of node 18 (blade 1, node 17), m
         54    7.742E+01                                 F               0         IfW Z-component position of node 18 (blade 1, node 17), m
         55    4.918E+00                                 F               0         IfW X-component position of node 19 (blade 1, node 18), m
         56   -3.599E+01                                 F               0         IfW Y-component position of node 19 (blade 1, node 18), m
         57    7.392E+01                                 F               0         IfW Z-component position of node 19 (blade 1, node 18), m
         58    3.944E+00                                 F               0         IfW X-component position of node 20 (blade 1, node 19), m
         59   -3.731E+01                                 F               0         IfW Y-component position of node 20 (blade 1, node 19), m
         60    7.041E+01                                 F               0         IfW Z-component position of node 20 (blade 1, node 19), m
         61    2.969E+00                                 F               0         IfW X-component position of node 21 (blade 1, node 20), m
         62   -3.862E+01                                 F               0         IfW Y-component position of node 21 (blade 1, node 20), m
         63    6.691E+01                                 F               0         IfW Z-component position of node 21 (blade 1, node 20), m
         64    1.995E+00                                 F               0         IfW X-component position of node 22 (blade 1, node 21), m
         65   -3.994E+01                                 F               0         IfW Y-component position of node 22 (blade 1, node 21), m
         66    6.340E+01                                 F               0         IfW Z-component position of node 22 (blade 1, node 21), m
         67    1.020E+00                                 F               0         IfW X-component position of node 23 (blade 1, node 22), m
         68   -4.125E+01                                 F               0         IfW Y-component position of node 23 (blade 1, node 22), m
         69    5.990E+01                                 F               0         IfW Z-component position of node 23 (blade 1, node 22), m
         70    4.602E-02                                 F               0         IfW X-component position of node 24 (blade 1, node 23), m
         71   -4.257E+01                                 F               0         IfW Y-component position of node 24 (blade 1, node 23), m
         72    5.640E+01                                 F               0         IfW Z-component position of node 24 (blade 1, node 23), m
         73   -9.284E-01                                 F               0         IfW X-component position of node 25 (blade 1, node 24), m
         74   -4.389E+01                                 F               0         IfW Y-component position of node 25 (blade 1, node 24), m
         75    5.289E+01                                 F               0         IfW Z-component position of node 25 (blade 1, node 24), m
         76   -1.903E+00                                 F               0         IfW X-component position of node 26 (blade 1, node 25), m
         77   -4.520E+01                                 F               0         IfW Y-component position of node 26 (blade 1, node 25), m
         78    4.939E+01                                 F               0         IfW Z-component position of node 26 (blade 1, node 25), m
         79   -2.877E+00                                 F               0         IfW X-component position of node 27 (blade 1, node 26), m
         80   -4.652E+01                                 F               0         IfW Y-component position of node 27 (blade 1, node 26), m
         81    4.588E+01                                 F               0         IfW Z-component position of node 27 (blade 1, node 26), m
         82   -3.852E+00                                 F               0         IfW X-component position of node 28 (blade 1, node 27), m
         83   -4.783E+01                                 F               0         IfW Y-component position of node 28 (blade 1, node 27), m
         84    4.238E+01                                 F               0         IfW Z-component position of node 28 (blade 1, node 27), m
         85   -4.678E+00                                 F               0         IfW X-component position of node 29 (blade 1, node 28), m
         86   -4.895E+01                                 F               0         IfW Y-component position of node 29 (blade 1, node 28), m
         87    3.941E+01                                 F               0         IfW Z-component position of node 29 (blade 1, node 28), m
         88    2.609E+01                                 F               0         IfW X-component position of node 30 (blade 2, node 1), m
         89   -2.291E+00                                 F               0         IfW Y-component position of node 30 (blade 2, node 1), m
         90    1.501E+02                                 F               0         IfW Z-component position of node 30 (blade 2, node 1), m
         91    2.615E+01                                 F               0         IfW X-component position of node 31 (blade 2, node 2), m
         92   -9.766E-01                                 F               0         IfW Y-component position of node 31 (blade 2, node 2), m
         93    1.503E+02                                 F               0         IfW Z-component position of node 31 (blade 2, node 2), m
         94    2.697E+01                                 F               0         IfW X-component position of node 32 (blade 2, node 3), m
         95    1.689E+01                                 F               0         IfW Y-component position of node 32 (blade 2, node 3), m
         96    1.534E+02                                 F               0         IfW Z-component position of node 32 (blade 2, node 3), m
         97    2.714E+01                                 F               0         IfW X-component position of node 33 (blade 2, node 4), m
         98    2.070E+01                                 F               0         IfW Y-component position of node 33 (blade 2, node 4), m
         99    1.541E+02                                 F               0         IfW Z-component position of node 33 (blade 2, node 4), m
        100    2.732E+01                                 F               0         IfW X-component position of node 34 (blade 2, node 5), m
        101    2.451E+01                                 F               0         IfW Y-component position of node 34 (blade 2, node 5), m
        102    1.547E+02                                 F               0         IfW Z-component position of node 34 (blade 2, node 5), m
        103    2.749E+01                                 F               0         IfW X-component position of node 35 (blade 2, node 6), m
        104    2.832E+01                                 F               0         IfW Y-component position of node 35 (blade 2, node 6), m
        105    1.554E+02                                 F               0         IfW Z-component position of node 35 (blade 2, node 6), m
        106    2.767E+01                                 F               0         IfW X-component position of node 36 (blade 2, node 7), m
        107    3.212E+01                                 F               0         IfW Y-component position of node 36 (blade 2, node 7), m
        108    1.560E+02                                 F               0         IfW Z-component position of node 36 (blade 2, node 7), m
        109    2.784E+01                                 F               0         IfW X-component position of node 37 (blade 2, node 8), m
        110    3.593E+01                                 F               0         IfW Y-component position of node 37 (blade 2, node 8), m
        111    1.567E+02                                 F               0         IfW Z-component position of node 37 (blade 2, node 8), m
        112    2.801E+01                                 F               0         IfW X-component position of node 38 (blade 2, node 9), m
        113    3.974E+01                                 F               0         IfW Y-component position of node 38 (blade 2, node 9), m
        114    1.573E+02                                 F               0         IfW Z-component position of node 38 (blade 2, node 9), m
        115    2.819E+01                                 F               0         IfW X-component position of node 39 (blade 2, node 10), m
        116    4.355E+01                                 F               0         IfW Y-component position of node 39 (blade 2, node 10), m
        117    1.580E+02                                 F               0         IfW Z-component position of node 39 (blade 2, node 10), m
        118    2.836E+01                                 F               0         IfW X-component position of node 40 (blade 2, node 11), m
        119    4.735E+01                                 F               0         IfW Y-component position of node 40 (blade 2, node 11), m
        120    1.587E+02                                 F               0         IfW Z-component position of node 40 (blade 2, node 11), m
        121    2.854E+01                                 F               0         IfW X-component position of node 41 (blade 2, node 12), m
        122    5.116E+01                                 F               0         IfW Y-component position of node 41 (blade 2, node 12), m
        123    1.593E+02                                 F               0         IfW Z-component position of node 41 (blade 2, node 12), m
        124    2.871E+01                                 F               0         IfW X-component position of node 42 (blade 2, node 13), m
        125    5.497E+01                                 F               0         IfW Y-component position of node 42 (blade 2, node 13), m
        126    1.600E+02                                 F               0         IfW Z-component position of node 42 (blade 2, node 13), m
        127    2.889E+01                                 F               0         IfW X-component position of node 43 (blade 2, node 14), m
        128    5.878E+01                                 F               0         IfW Y-component position of node 43 (blade 2, node 14), m
        129    1.606E+02                                 F               0         IfW Z-component position of node 43 (blade 2, node 14), m
        130    2.906E+01                                 F               0         IfW X-component position of node 44 (blade 2, node 15), m
        131    6.259E+01                                 F               0         IfW Y-component position of node 44 (blade 2, node 15), m
        132    1.613E+02                                 F               0         IfW Z-component position of node 44 (blade 2, node 15), m
        133    2.923E+01                                 F               0         IfW X-component position of node 45 (blade 2, node 16), m
        134    6.639E+01                                 F               0         IfW Y-component position of node 45 (blade 2, node 16), m
        135    1.619E+02                                 F               0         IfW Z-component position of node 45 (blade 2, node 16), m
        136    2.941E+01                                 F               0         IfW X-component position of node 46 (blade 2, node 17), m
        137    7.020E+01                                 F               0         IfW Y-component position of node 46 (blade 2, node 17), m
        138    1.626E+02                                 F               0         IfW Z-component position of node 46 (blade 2, node 17), m
        139    2.958E+01                                 F               0         IfW X-component position of node 47 (blade 2, node 18), m
        140    7.401E+01                                 F               0         IfW Y-component position of node 47 (blade 2, node 18), m
        141    1.632E+02                                 F               0         IfW Z-component position of node 47 (blade 2, node 18), m
        142    2.976E+01                                 F               0         IfW X-component position of node 48 (blade 2, node 19), m
        143    7.782E+01                                 F               0         IfW Y-component position of node 48 (blade 2, node 19), m
        144    1.639E+02                                 F               0         IfW Z-component position of node 48 (blade 2, node 19), m
        145    2.993E+01                                 F               0         IfW X-component position of node 49 (blade 2, node 20), m
        146    8.162E+01                                 F               0         IfW Y-component position of node 49 (blade 2, node 20), m
        147    1.646E+02                                 F               0         IfW Z-component position of node 49 (blade 2, node 20), m
        148    3.011E+01                                 F               0         IfW X-component position of node 50 (blade 2, node 21), m
        149    8.543E+01                                 F               0         IfW Y-component position of node 50 (blade 2, node 21), m
        150    1.652E+02                                 F               0         IfW Z-component position of node 50 (blade 2, node 21), m
        151    3.028E+01                                 F               0         IfW X-component position of node 51 (blade 2, node 22), m
        152    8.924E+01                                 F               0         IfW Y-component position of node 51 (blade 2, node 22), m
        153    1.659E+02                                 F               0         IfW Z-component position of node 51 (blade 2, node 22), m
        154    3.045E+01                                 F               0         IfW X-component position of node 52 (blade 2, node 23), m
        155    9.305E+01                                 F               0         IfW Y-component position of node 52 (blade 2, node 23), m