
Linearized model: Predictions were generated on 06-Feb-2024 at 16:18:08 using OpenFAST, compiled as a 64-bit application using single precision at commit v3.5.1
 linked with  NWTC Subroutine Library; ElastoDyn; InflowWind; AeroDyn; ServoDyn; HydroDyn; MAP++ (<1.20.10>, <Oct-20-2023>)

Description from the FAST input file: CCT-9 Campign 4 model. Input files to be run with OpenFAST 3.5.0. GitHub branch from Lu Wang (https://github.com/luwang00/openfast/tree/dev) compiled on March 7, 2023.

Simulation information:
   Simulation time:                  1003.2500 s
   Rotor Speed:                         1.0421 rad/s
   Azimuth:                             4.8870 rad
   Wind Speed:                         12.0000 m/s
   Number of continuous states:        18
   Number of discrete states:           0
   Number of constraint states:         0
   Number of inputs:                 3988
   Number of outputs:                  36
   Jacobians included in this file?    No

Order of continuous states:
   Row/Column Operating Point                     Rotating Frame? Derivative Order Description
   ---------- ---------------                     --------------- ---------------- -----------
          1    1.231E+01                                 F               2         ED Platform horizontal surge translation DOF (internal DOF index = DOF_Sg), m
          2   -2.581E-01                                 F               2         ED Platform vertical heave translation DOF (internal DOF index = DOF_Hv), m
          3    4.697E-02                                 F               2         ED Platform roll tilt rotation DOF (internal DOF index = DOF_R), rad
          4    1.559E-01                                 F               2         ED Platform pitch tilt rotation DOF (internal DOF index = DOF_P), rad
          5    1.080E+00                                 F               2         ED 1st tower fore-aft bending mode DOF (internal DOF index = DOF_TFA1), m
          6    1.746E-01                                 F               2         ED 1st tower side-to-side bending mode DOF (internal DOF index = DOF_TSS1), m
          7    1.616E-03                                 F               2         ED 2nd tower fore-aft bending mode DOF (internal DOF index = DOF_TFA2), m
          8    7.928E-05                                 F               2         ED 2nd tower side-to-side bending mode DOF (internal DOF index = DOF_TSS2), m
          9    3.316E+00                                 F               2         ED Variable speed generator DOF (internal DOF index = DOF_GeAz), rad
         10    1.710E-05                                 F               2         ED First time derivative of Platform horizontal surge translation DOF (internal DOF index = DOF_Sg), m/s
         11    7.798E-04                                 F               2         ED First time derivative of Platform vertical heave translation DOF (internal DOF index = DOF_Hv), m/s
         12    3.381E-05                                 F               2         ED First time derivative of Platform roll tilt rotation DOF (internal DOF index = DOF_R), rad/s
         13   -3.481E-06                                 F               2         ED First time derivative of Platform pitch tilt rotation DOF (internal DOF index = DOF_P), rad/s
         14   -6.703E-04                                 F               2         ED First time derivative of 1st tower fore-aft bending mode DOF (internal DOF index = DOF_TFA1), m/s
         15   -1.421E-03                                 F               2         ED First time derivative of 1st tower side-to-side bending mode DOF (internal DOF index = DOF_TSS1), m/s
         16   -7.320E-06                                 F               2         ED First time derivative of 2nd tower fore-aft bending mode DOF (internal DOF index = DOF_TFA2), m/s
         17    3.029E-06                                 F               2         ED First time derivative of 2nd tower side-to-side bending mode DOF (internal DOF index = DOF_TSS2), m/s
         18    1.042E+00                                 F               2         ED First time derivative of Variable speed generator DOF (internal DOF index = DOF_GeAz), rad/s

Order of continuous state derivatives:
   Row/Column Operating Point                     Rotating Frame? Derivative Order Description
   ---------- ---------------                     --------------- ---------------- -----------
          1    1.710E-05                                 F               2         First time derivative of ED Platform horizontal surge translation DOF (internal DOF index = DOF_Sg), m/s
          2    7.798E-04                                 F               2         First time derivative of ED Platform vertical heave translation DOF (internal DOF index = DOF_Hv), m/s
          3    3.381E-05                                 F               2         First time derivative of ED Platform roll tilt rotation DOF (internal DOF index = DOF_R), rad/s
          4   -3.481E-06                                 F               2         First time derivative of ED Platform pitch tilt rotation DOF (internal DOF index = DOF_P), rad/s
          5   -6.703E-04                                 F               2         First time derivative of ED 1st tower fore-aft bending mode DOF (internal DOF index = DOF_TFA1), m/s
          6   -1.421E-03                                 F               2         First time derivative of ED 1st tower side-to-side bending mode DOF (internal DOF index = DOF_TSS1), m/s
          7   -7.320E-06                                 F               2         First time derivative of ED 2nd tower fore-aft bending mode DOF (internal DOF index = DOF_TFA2), m/s
          8    3.029E-06                                 F               2         First time derivative of ED 2nd tower side-to-side bending mode DOF (internal DOF index = DOF_TSS2), m/s
          9    1.042E+00                                 F               2         First time derivative of ED Variable speed generator DOF (internal DOF index = DOF_GeAz), rad/s
         10    2.231E-04                                 F               2         First time derivative of ED First time derivative of Platform horizontal surge translation DOF (internal DOF index = DOF_Sg), m/s/s
         11    1.227E-03                                 F               2         First time derivative of ED First time derivative of Platform vertical heave translation DOF (internal DOF index = DOF_Hv), m/s/s
         12   -2.605E-05                                 F               2         First time derivative of ED First time derivative of Platform roll tilt rotation DOF (internal DOF index = DOF_R), rad/s/s
         13    1.356E-05                                 F               2         First time derivative of ED First time derivative of Platform pitch tilt rotation DOF (internal DOF index = DOF_P), rad/s/s
         14   -4.669E-03                                 F               2         First time derivative of ED First time derivative of 1st tower fore-aft bending mode DOF (internal DOF index = DOF_TFA1), m/s/s
         15    1.069E-03                                 F               2         First time derivative of ED First time derivative of 1st tower side-to-side bending mode DOF (internal DOF index = DOF_TSS1), m/s/s
         16   -3.233E-05                                 F               2         First time derivative of ED First time derivative of 2nd tower fore-aft bending mode DOF (internal DOF index = DOF_TFA2), m/s/s
         17   -3.421E-06                                 F               2         First time derivative of ED First time derivative of 2nd tower side-to-side bending mode DOF (internal DOF index = DOF_TSS2), m/s/s
         18   -9.629E-05                                 F               2         First time derivative of ED First time derivative of Variable speed generator DOF (internal DOF index = DOF_GeAz), rad/s/s

Order of inputs:
     Column   Operating Point                     Rotating Frame? Derivative Order Description
   ---------- ---------------                     --------------- ---------------- -----------
          1   -1.080E+01                                 F               0         IfW X-component position of node 1 (hub), m
          2    0.000E+00                                 F               0         IfW Y-component position of node 1 (hub), m
          3    1.497E+02                                 F               0         IfW Z-component position of node 1 (hub), m
          4    2.616E+01                                 F               0         IfW X-component position of node 2 (blade 1, node 1), m
          5   -2.349E+00                                 F               0         IfW Y-component position of node 2 (blade 1, node 1), m
          6    1.503E+02                                 F               0         IfW Z-component position of node 2 (blade 1, node 1), m
          7    2.623E+01                                 F               0         IfW X-component position of node 3 (blade 1, node 2), m
          8   -1.048E+00                                 F               0         IfW Y-component position of node 3 (blade 1, node 2), m
          9    1.506E+02                                 F               0         IfW Z-component position of node 3 (blade 1, node 2), m
         10    2.728E+01                                 F               0         IfW X-component position of node 4 (blade 1, node 3), m
         11    1.665E+01                                 F               0         IfW Y-component position of node 4 (blade 1, node 3), m
         12    1.545E+02                                 F               0         IfW Z-component position of node 4 (blade 1, node 3), m
         13    2.750E+01                                 F               0         IfW X-component position of node 5 (blade 1, node 4), m
         14    2.042E+01                                 F               0         IfW Y-component position of node 5 (blade 1, node 4), m
         15    1.553E+02                                 F               0         IfW Z-component position of node 5 (blade 1, node 4), m
         16    2.772E+01                                 F               0         IfW X-component position of node 6 (blade 1, node 5), m
         17    2.419E+01                                 F               0         IfW Y-component position of node 6 (blade 1, node 5), m
         18    1.562E+02                                 F               0         IfW Z-component position of node 6 (blade 1, node 5), m
         19    2.794E+01                                 F               0         IfW X-component position of node 7 (blade 1, node 6), m
         20    2.797E+01                                 F               0         IfW Y-component position of node 7 (blade 1, node 6), m
         21    1.570E+02                                 F               0         IfW Z-component position of node 7 (blade 1, node 6), m
         22    2.817E+01                                 F               0         IfW X-component position of node 8 (blade 1, node 7), m
         23    3.174E+01                                 F               0         IfW Y-component position of node 8 (blade 1, node 7), m
         24    1.578E+02                                 F               0         IfW Z-component position of node 8 (blade 1, node 7), m
         25    2.839E+01                                 F               0         IfW X-component position of node 9 (blade 1, node 8), m
         26    3.551E+01                                 F               0         IfW Y-component position of node 9 (blade 1, node 8), m
         27    1.586E+02                                 F               0         IfW Z-component position of node 9 (blade 1, node 8), m
         28    2.861E+01                                 F               0         IfW X-component position of node 10 (blade 1, node 9), m
         29    3.928E+01                                 F               0         IfW Y-component position of node 10 (blade 1, node 9), m
         30    1.595E+02                                 F               0         IfW Z-component position of node 10 (blade 1, node 9), m
         31    2.883E+01                                 F               0         IfW X-component position of node 11 (blade 1, node 10), m
         32    4.305E+01                                 F               0         IfW Y-component position of node 11 (blade 1, node 10), m
         33    1.603E+02                                 F               0         IfW Z-component position of node 11 (blade 1, node 10), m
         34    2.906E+01                                 F               0         IfW X-component position of node 12 (blade 1, node 11), m
         35    4.682E+01                                 F               0         IfW Y-component position of node 12 (blade 1, node 11), m
         36    1.611E+02                                 F               0         IfW Z-component position of node 12 (blade 1, node 11), m
         37    2.928E+01                                 F               0         IfW X-component position of node 13 (blade 1, node 12), m
         38    5.059E+01                                 F               0         IfW Y-component position of node 13 (blade 1, node 12), m
         39    1.620E+02                                 F               0         IfW Z-component position of node 13 (blade 1, node 12), m
         40    2.950E+01                                 F               0         IfW X-component position of node 14 (blade 1, node 13), m
         41    5.437E+01                                 F               0         IfW Y-component position of node 14 (blade 1, node 13), m
         42    1.628E+02                                 F               0         IfW Z-component position of node 14 (blade 1, node 13), m
         43    2.972E+01                                 F               0         IfW X-component position of node 15 (blade 1, node 14), m
         44    5.814E+01                                 F               0         IfW Y-component position of node 15 (blade 1, node 14), m
         45    1.636E+02                                 F               0         IfW Z-component position of node 15 (blade 1, node 14), m
         46    2.995E+01                                 F               0         IfW X-component position of node 16 (blade 1, node 15), m
         47    6.191E+01                                 F               0         IfW Y-component position of node 16 (blade 1, node 15), m
         48    1.644E+02                                 F               0         IfW Z-component position of node 16 (blade 1, node 15), m
         49    3.017E+01                                 F               0         IfW X-component position of node 17 (blade 1, node 16), m
         50    6.568E+01                                 F               0         IfW Y-component position of node 17 (blade 1, node 16), m
         51    1.653E+02                                 F               0         IfW Z-component position of node 17 (blade 1, node 16), m
         52    3.039E+01                                 F               0         IfW X-component position of node 18 (blade 1, node 17), m
         53    6.945E+01                                 F               0         IfW Y-component position of node 18 (blade 1, node 17), m
         54    1.661E+02                                 F               0         IfW Z-component position of node 18 (blade 1, node 17), m
         55    3.061E+01                                 F               0         IfW X-component position of node 19 (blade 1, node 18), m
         56    7.322E+01                                 F               0         IfW Y-component position of node 19 (blade 1, node 18), m
         57    1.669E+02                                 F               0         IfW Z-component position of node 19 (blade 1, node 18), m
         58    3.084E+01                                 F               0         IfW X-component position of node 20 (blade 1, node 19), m
         59    7.699E+01                                 F               0         IfW Y-component position of node 20 (blade 1, node 19), m
         60    1.678E+02                                 F               0         IfW Z-component position of node 20 (blade 1, node 19), m
         61    3.106E+01                                 F               0         IfW X-component position of node 21 (blade 1, node 20), m
         62    8.076E+01                                 F               0         IfW Y-component position of node 21 (blade 1, node 20), m
         63    1.686E+02                                 F               0         IfW Z-component position of node 21 (blade 1, node 20), m
         64    3.128E+01                                 F               0         IfW X-component position of node 22 (blade 1, node 21), m
         65    8.454E+01                                 F               0         IfW Y-component position of node 22 (blade 1, node 21), m
         66    1.694E+02                                 F               0         IfW Z-component position of node 22 (blade 1, node 21), m
         67    3.150E+01                                 F               0         IfW X-component position of node 23 (blade 1, node 22), m
         68    8.831E+01                                 F               0         IfW Y-component position of node 23 (blade 1, node 22), m
         69    1.703E+02                                 F               0         IfW Z-component position of node 23 (blade 1, node 22), m
         70    3.173E+01                                 F               0         IfW X-component position of node 24 (blade 1, node 23), m
         71    9.208E+01                                 F               0         IfW Y-component position of node 24 (blade 1, node 23), m
         72    1.711E+02                                 F               0         IfW Z-component position of node 24 (blade 1, node 23), m
         73    3.195E+01                                 F               0         IfW X-component position of node 25 (blade 1, node 24), m
         74    9.585E+01                                 F               0         IfW Y-component position of node 25 (blade 1, node 24), m
         75    1.719E+02                                 F               0         IfW Z-component position of node 25 (blade 1, node 24), m
         76    3.217E+01                                 F               0         IfW X-component position of node 26 (blade 1, node 25), m
         77    9.962E+01                                 F               0         IfW Y-component position of node 26 (blade 1, node 25), m
         78    1.727E+02                                 F               0         IfW Z-component position of node 26 (blade 1, node 25), m
         79    3.239E+01                                 F               0         IfW X-component position of node 27 (blade 1, node 26), m
         80    1.034E+02                                 F               0         IfW Y-component position of node 27 (blade 1, node 26), m
         81    1.736E+02                                 F               0         IfW Z-component position of node 27 (blade 1, node 26), m
         82    3.262E+01                                 F               0         IfW X-component position of node 28 (blade 1, node 27), m
         83    1.072E+02                                 F               0         IfW Y-component position of node 28 (blade 1, node 27), m
         84    1.744E+02                                 F               0         IfW Z-component position of node 28 (blade 1, node 27), m
         85    3.280E+01                                 F               0         IfW X-component position of node 29 (blade 1, node 28), m
         86    1.104E+02                                 F               0         IfW Y-component position of node 29 (blade 1, node 28), m
         87    1.751E+02                                 F               0         IfW Z-component position of node 29 (blade 1, node 28), m
         88    2.694E+01                                 F               0         IfW X-component position of node 30 (blade 2, node 1), m
         89   -1.152E+01                                 F               0         IfW Y-component position of node 30 (blade 2, node 1), m
         90    1.531E+02                                 F               0         IfW Z-component position of node 30 (blade 2, node 1), m
         91    2.720E+01                                 F               0         IfW X-component position of node 31 (blade 2, node 2), m
         92   -1.242E+01                                 F               0         IfW Y-component position of node 31 (blade 2, node 2), m
         93    1.540E+02                                 F               0         IfW Z-component position of node 31 (blade 2, node 2), m
         94    3.081E+01                                 F               0         IfW X-component position of node 32 (blade 2, node 3), m
         95   -2.476E+01                                 F               0         IfW Y-component position of node 32 (blade 2, node 3), m
         96    1.668E+02                                 F               0         IfW Z-component position of node 32 (blade 2, node 3), m
         97    3.157E+01                                 F               0         IfW X-component position of node 33 (blade 2, node 4), m
         98   -2.739E+01                                 F               0         IfW Y-component position of node 33 (blade 2, node 4), m
         99    1.695E+02                                 F               0         IfW Z-component position of node 33 (blade 2, node 4), m
        100    3.234E+01                                 F               0         IfW X-component position of node 34 (blade 2, node 5), m
        101   -3.002E+01                                 F               0         IfW Y-component position of node 34 (blade 2, node 5), m
        102    1.723E+02                                 F               0         IfW Z-component position of node 34 (blade 2, node 5), m
        103    3.311E+01                                 F               0         IfW X-component position of node 35 (blade 2, node 6), m
        104   -3.265E+01                                 F               0         IfW Y-component position of node 35 (blade 2, node 6), m
        105    1.750E+02                                 F               0         IfW Z-component position of node 35 (blade 2, node 6), m
        106    3.388E+01                                 F               0         IfW X-component position of node 36 (blade 2, node 7), m
        107   -3.528E+01                                 F               0         IfW Y-component position of node 36 (blade 2, node 7), m
        108    1.777E+02                                 F               0         IfW Z-component position of node 36 (blade 2, node 7), m
        109    3.465E+01                                 F               0         IfW X-component position of node 37 (blade 2, node 8), m
        110   -3.791E+01                                 F               0         IfW Y-component position of node 37 (blade 2, node 8), m
        111    1.805E+02                                 F               0         IfW Z-component position of node 37 (blade 2, node 8), m
        112    3.541E+01                                 F               0         IfW X-component position of node 38 (blade 2, node 9), m
        113   -4.054E+01                                 F               0         IfW Y-component position of node 38 (blade 2, node 9), m
        114    1.832E+02                                 F               0         IfW Z-component position of node 38 (blade 2, node 9), m
        115    3.618E+01                                 F               0         IfW X-component position of node 39 (blade 2, node 10), m
        116   -4.316E+01                                 F               0         IfW Y-component position of node 39 (blade 2, node 10), m
        117    1.859E+02                                 F               0         IfW Z-component position of node 39 (blade 2, node 10), m
        118    3.695E+01                                 F               0         IfW X-component position of node 40 (blade 2, node 11), m
        119   -4.579E+01                                 F               0         IfW Y-component position of node 40 (blade 2, node 11), m
        120    1.887E+02                                 F               0         IfW Z-component position of node 40 (blade 2, node 11), m
        121    3.772E+01                                 F               0         IfW X-component position of node 41 (blade 2, node 12), m
        122   -4.842E+01                                 F               0         IfW Y-component position of node 41 (blade 2, node 12), m
        123    1.914E+02                                 F               0         IfW Z-component position of node 41 (blade 2, node 12), m
        124    3.848E+01                                 F               0         IfW X-component position of node 42 (blade 2, node 13), m
        125   -5.105E+01                                 F               0         IfW Y-component position of node 42 (blade 2, node 13), m
        126    1.941E+02                                 F               0         IfW Z-component position of node 42 (blade 2, node 13), m
        127    3.925E+01                                 F               0         IfW X-component position of node 43 (blade 2, node 14), m
        128   -5.368E+01                                 F               0         IfW Y-component position of node 43 (blade 2, node 14), m
        129    1.969E+02                                 F               0         IfW Z-component position of node 43 (blade 2, node 14), m
        130    4.002E+01                                 F               0         IfW X-component position of node 44 (blade 2, node 15), m
        131   -5.631E+01                                 F               0         IfW Y-component position of node 44 (blade 2, node 15), m
        132    1.996E+02                                 F               0         IfW Z-component position of node 44 (blade 2, node 15), m
        133    4.079E+01                                 F               0         IfW X-component position of node 45 (blade 2, node 16), m
        134   -5.894E+01                                 F               0         IfW Y-component position of node 45 (blade 2, node 16), m
        135    2.023E+02                                 F               0         IfW Z-component position of node 45 (blade 2, node 16), m
        136    4.156E+01                                 F               0         IfW X-component position of node 46 (blade 2, node 17), m
        137   -6.157E+01                                 F               0         IfW Y-component position of node 46 (blade 2, node 17), m
        138    2.050E+02                                 F               0         IfW Z-component position of node 46 (blade 2, node 17), m
        139    4.232E+01                                 F               0         IfW X-component position of node 47 (blade 2, node 18), m
        140   -6.419E+01                                 F               0         IfW Y-component position of node 47 (blade 2, node 18), m
        141    2.078E+02                                 F               0         IfW Z-component position of node 47 (blade 2, node 18), m
        142    4.309E+01                                 F               0         IfW X-component position of node 48 (blade 2, node 19), m
        143   -6.682E+01                                 F               0         IfW Y-component position of node 48 (blade 2, node 19), m
        144    2.105E+02                                 F               0         IfW Z-component position of node 48 (blade 2, node 19), m
        145    4.386E+01                                 F               0         IfW X-component position of node 49 (blade 2, node 20), m
        146   -6.945E+01                                 F               0         IfW Y-component position of node 49 (blade 2, node 20), m
        147    2.132E+02                                 F               0         IfW Z-component position of node 49 (blade 2, node 20), m
        148    4.463E+01                                 F               0         IfW X-component position of node 50 (blade 2, node 21), m
        149   -7.208E+01                                 F               0         IfW Y-component position of node 50 (blade 2, node 21), m
        150    2.160E+02                                 F               0         IfW Z-component position of node 50 (blade 2, node 21), m
        151    4.540E+01                                 F               0         IfW X-component position of node 51 (blade 2, node 22), m
        152   -7.471E+01                                 F               0         IfW Y-component position of node 51 (blade 2, node 22), m
        153    2.187E+02                                 F               0         IfW Z-component position of node 51 (blade 2, node 22), m
        154    4.616E+01                                 F               0         IfW X-component position of node 52 (blade 2, node 23), m
        155   -7.734E+01                                 F               0         IfW Y-component position of node 52 (blade 2, node 23), m