
Linearized model: Predictions were generated on 06-Feb-2024 at 16:18:08 using OpenFAST, compiled as a 64-bit application using single precision at commit v3.5.1
 linked with  NWTC Subroutine Library; ElastoDyn; InflowWind; AeroDyn; ServoDyn; HydroDyn; MAP++ (<1.20.10>, <Oct-20-2023>)

Description from the FAST input file: CCT-9 Campign 4 model. Input files to be run with OpenFAST 3.5.0. GitHub branch from Lu Wang (https://github.com/luwang00/openfast/tree/dev) compiled on March 7, 2023.

Simulation information:
   Simulation time:                  1007.7000 s
   Rotor Speed:                         1.0421 rad/s
   Azimuth:                             3.2404 rad
   Wind Speed:                         12.0000 m/s
   Number of continuous states:        18
   Number of discrete states:           0
   Number of constraint states:         0
   Number of inputs:                 1890
   Number of outputs:                  19
   Jacobians included in this file?    No

Order of continuous states:
   Row/Column Operating Point                     Rotating Frame? Derivative Order Description
   ---------- ---------------                     --------------- ---------------- -----------
          1    1.231E+01                                 F               2         Platform horizontal surge translation DOF (internal DOF index = DOF_Sg), m
          2   -2.424E-01                                 F               2         Platform vertical heave translation DOF (internal DOF index = DOF_Hv), m
          3    4.691E-02                                 F               2         Platform roll tilt rotation DOF (internal DOF index = DOF_R), rad
          4    1.559E-01                                 F               2         Platform pitch tilt rotation DOF (internal DOF index = DOF_P), rad
          5    1.080E+00                                 F               2         1st tower fore-aft bending mode DOF (internal DOF index = DOF_TFA1), m
          6    1.774E-01                                 F               2         1st tower side-to-side bending mode DOF (internal DOF index = DOF_TSS1), m
          7    1.611E-03                                 F               2         2nd tower fore-aft bending mode DOF (internal DOF index = DOF_TFA2), m
          8    7.674E-05                                 F               2         2nd tower side-to-side bending mode DOF (internal DOF index = DOF_TSS2), m
          9    1.670E+00                                 F               2         Variable speed generator DOF (internal DOF index = DOF_GeAz), rad
         10    3.982E-04                                 F               2         First time derivative of Platform horizontal surge translation DOF (internal DOF index = DOF_Sg), m/s
         11    5.154E-03                                 F               2         First time derivative of Platform vertical heave translation DOF (internal DOF index = DOF_Hv), m/s
         12    2.532E-05                                 F               2         First time derivative of Platform roll tilt rotation DOF (internal DOF index = DOF_R), rad/s
         13    2.076E-05                                 F               2         First time derivative of Platform pitch tilt rotation DOF (internal DOF index = DOF_P), rad/s
         14   -2.284E-03                                 F               2         First time derivative of 1st tower fore-aft bending mode DOF (internal DOF index = DOF_TFA1), m/s
         15   -1.014E-03                                 F               2         First time derivative of 1st tower side-to-side bending mode DOF (internal DOF index = DOF_TSS1), m/s
         16   -6.236E-06                                 F               2         First time derivative of 2nd tower fore-aft bending mode DOF (internal DOF index = DOF_TFA2), m/s
         17    8.393E-07                                 F               2         First time derivative of 2nd tower side-to-side bending mode DOF (internal DOF index = DOF_TSS2), m/s
         18    1.042E+00                                 F               2         First time derivative of Variable speed generator DOF (internal DOF index = DOF_GeAz), rad/s

Order of continuous state derivatives:
   Row/Column Operating Point                     Rotating Frame? Derivative Order Description
   ---------- ---------------                     --------------- ---------------- -----------
          1    3.982E-04                                 F               2         First time derivative of Platform horizontal surge translation DOF (internal DOF index = DOF_Sg), m/s
          2    5.154E-03                                 F               2         First time derivative of Platform vertical heave translation DOF (internal DOF index = DOF_Hv), m/s
          3    2.532E-05                                 F               2         First time derivative of Platform roll tilt rotation DOF (internal DOF index = DOF_R), rad/s
          4    2.076E-05                                 F               2         First time derivative of Platform pitch tilt rotation DOF (internal DOF index = DOF_P), rad/s
          5   -2.284E-03                                 F               2         First time derivative of 1st tower fore-aft bending mode DOF (internal DOF index = DOF_TFA1), m/s
          6   -1.014E-03                                 F               2         First time derivative of 1st tower side-to-side bending mode DOF (internal DOF index = DOF_TSS1), m/s
          7   -6.236E-06                                 F               2         First time derivative of 2nd tower fore-aft bending mode DOF (internal DOF index = DOF_TFA2), m/s
          8    8.393E-07                                 F               2         First time derivative of 2nd tower side-to-side bending mode DOF (internal DOF index = DOF_TSS2), m/s
          9    1.042E+00                                 F               2         First time derivative of Variable speed generator DOF (internal DOF index = DOF_GeAz), rad/s
         10   -2.307E-04                                 F               2         First time derivative of First time derivative of Platform horizontal surge translation DOF (internal DOF index = DOF_Sg), m/s/s
         11   -2.029E-04                                 F               2         First time derivative of First time derivative of Platform vertical heave translation DOF (internal DOF index = DOF_Hv), m/s/s
         12    4.128E-05                                 F               2         First time derivative of First time derivative of Platform roll tilt rotation DOF (internal DOF index = DOF_R), rad/s/s
         13   -1.209E-05                                 F               2         First time derivative of First time derivative of Platform pitch tilt rotation DOF (internal DOF index = DOF_P), rad/s/s
         14    2.346E-03                                 F               2         First time derivative of First time derivative of 1st tower fore-aft bending mode DOF (internal DOF index = DOF_TFA1), m/s/s
         15   -2.617E-03                                 F               2         First time derivative of First time derivative of 1st tower side-to-side bending mode DOF (internal DOF index = DOF_TSS1), m/s/s
         16    7.926E-06                                 F               2         First time derivative of First time derivative of 2nd tower fore-aft bending mode DOF (internal DOF index = DOF_TFA2), m/s/s
         17    1.330E-07                                 F               2         First time derivative of First time derivative of 2nd tower side-to-side bending mode DOF (internal DOF index = DOF_TSS2), m/s/s
         18    1.318E-04                                 F               2         First time derivative of First time derivative of Variable speed generator DOF (internal DOF index = DOF_GeAz), rad/s/s

Order of inputs:
     Column   Operating Point                     Rotating Frame? Derivative Order Description
   ---------- ---------------                     --------------- ---------------- -----------
          1    9.354E+01                                 F               0         Blade 1 X force, node 1, N
          2   -9.696E+01                                 F               0         Blade 1 Y force, node 1, N
          3   -4.112E+01                                 F               0         Blade 1 Z force, node 1, N
          4    4.172E+02                                 F               0         Blade 1 X force, node 2, N
          5   -1.842E+02                                 F               0         Blade 1 Y force, node 2, N
          6   -1.450E+02                                 F               0         Blade 1 Z force, node 2, N
          7    5.669E+02                                 F               0         Blade 1 X force, node 3, N
          8   -9.634E+01                                 F               0         Blade 1 Y force, node 3, N
          9   -1.732E+02                                 F               0         Blade 1 Z force, node 3, N
         10    7.611E+02                                 F               0         Blade 1 X force, node 4, N
         11   -3.052E+01                                 F               0         Blade 1 Y force, node 4, N
         12   -2.173E+02                                 F               0         Blade 1 Z force, node 4, N
         13    9.553E+02                                 F               0         Blade 1 X force, node 5, N
         14    3.531E+01                                 F               0         Blade 1 Y force, node 5, N
         15   -2.613E+02                                 F               0         Blade 1 Z force, node 5, N
         16    1.149E+03                                 F               0         Blade 1 X force, node 6, N
         17    1.011E+02                                 F               0         Blade 1 Y force, node 6, N
         18   -3.054E+02                                 F               0         Blade 1 Z force, node 6, N
         19    1.344E+03                                 F               0         Blade 1 X force, node 7, N
         20    1.670E+02                                 F               0         Blade 1 Y force, node 7, N
         21   -3.494E+02                                 F               0         Blade 1 Z force, node 7, N
         22    1.538E+03                                 F               0         Blade 1 X force, node 8, N
         23    2.328E+02                                 F               0         Blade 1 Y force, node 8, N
         24   -3.935E+02                                 F               0         Blade 1 Z force, node 8, N
         25    1.732E+03                                 F               0         Blade 1 X force, node 9, N
         26    2.986E+02                                 F               0         Blade 1 Y force, node 9, N
         27   -4.376E+02                                 F               0         Blade 1 Z force, node 9, N
         28    1.926E+03                                 F               0         Blade 1 X force, node 10, N
         29    3.644E+02                                 F               0         Blade 1 Y force, node 10, N
         30   -4.816E+02                                 F               0         Blade 1 Z force, node 10, N
         31    2.120E+03                                 F               0         Blade 1 X force, node 11, N
         32    4.302E+02                                 F               0         Blade 1 Y force, node 11, N
         33   -5.257E+02                                 F               0         Blade 1 Z force, node 11, N
         34    2.315E+03                                 F               0         Blade 1 X force, node 12, N
         35    4.961E+02                                 F               0         Blade 1 Y force, node 12, N
         36   -5.697E+02                                 F               0         Blade 1 Z force, node 12, N
         37    2.509E+03                                 F               0         Blade 1 X force, node 13, N
         38    5.619E+02                                 F               0         Blade 1 Y force, node 13, N
         39   -6.138E+02                                 F               0         Blade 1 Z force, node 13, N
         40    2.703E+03                                 F               0         Blade 1 X force, node 14, N
         41    6.277E+02                                 F               0         Blade 1 Y force, node 14, N
         42   -6.578E+02                                 F               0         Blade 1 Z force, node 14, N
         43    2.897E+03                                 F               0         Blade 1 X force, node 15, N
         44    6.935E+02                                 F               0         Blade 1 Y force, node 15, N
         45   -7.019E+02                                 F               0         Blade 1 Z force, node 15, N
         46    3.091E+03                                 F               0         Blade 1 X force, node 16, N
         47    7.594E+02                                 F               0         Blade 1 Y force, node 16, N
         48   -7.459E+02                                 F               0         Blade 1 Z force, node 16, N
         49    3.811E+03                                 F               0         Blade 1 X force, node 17, N
         50    9.533E+02                                 F               0         Blade 1 Y force, node 17, N
         51   -9.171E+02                                 F               0         Blade 1 Z force, node 17, N
         52    2.925E+03                                 F               0         Blade 1 X force, node 18, N
         53    7.068E+02                                 F               0         Blade 1 Y force, node 18, N
         54   -7.077E+02                                 F               0         Blade 1 Z force, node 18, N
         55    3.609E+03                                 F               0         Blade 1 X force, node 19, N
         56    8.300E+02                                 F               0         Blade 1 Y force, node 19, N
         57   -8.797E+02                                 F               0         Blade 1 Z force, node 19, N
         58    3.093E+03                                 F               0         Blade 1 X force, node 20, N
         59    6.782E+02                                 F               0         Blade 1 Y force, node 20, N
         60   -7.590E+02                                 F               0         Blade 1 Z force, node 20, N
         61    4.593E+03                                 F               0         Blade 1 X force, node 21, N
         62    9.529E+02                                 F               0         Blade 1 Y force, node 21, N
         63   -1.136E+03                                 F               0         Blade 1 Z force, node 21, N
         64    4.076E+03                                 F               0         Blade 1 X force, node 22, N
         65    7.997E+02                                 F               0         Blade 1 Y force, node 22, N
         66   -1.015E+03                                 F               0         Blade 1 Z force, node 22, N
         67    4.206E+03                                 F               0         Blade 1 X force, node 23, N
         68    7.842E+02                                 F               0         Blade 1 Y force, node 23, N
         69   -1.053E+03                                 F               0         Blade 1 Z force, node 23, N
         70    4.411E+03                                 F               0         Blade 1 X force, node 24, N
         71    7.822E+02                                 F               0         Blade 1 Y force, node 24, N
         72   -1.111E+03                                 F               0         Blade 1 Z force, node 24, N
         73    4.539E+03                                 F               0         Blade 1 X force, node 25, N
         74    7.657E+02                                 F               0         Blade 1 Y force, node 25, N
         75   -1.149E+03                                 F               0         Blade 1 Z force, node 25, N
         76    4.691E+03                                 F               0         Blade 1 X force, node 26, N
         77    7.536E+02                                 F               0         Blade 1 Y force, node 26, N
         78   -1.194E+03                                 F               0         Blade 1 Z force, node 26, N
         79    5.643E+03                                 F               0         Blade 1 X force, node 27, N
         80    8.612E+02                                 F               0         Blade 1 Y force, node 27, N
         81   -1.443E+03                                 F               0         Blade 1 Z force, node 27, N
         82    4.198E+03                                 F               0         Blade 1 X force, node 28, N
         83    6.094E+02                                 F               0         Blade 1 Y force, node 28, N
         84   -1.078E+03                                 F               0         Blade 1 Z force, node 28, N
         85    5.150E+03                                 F               0         Blade 1 X force, node 29, N
         86    7.166E+02                                 F               0         Blade 1 Y force, node 29, N
         87   -1.328E+03                                 F               0         Blade 1 Z force, node 29, N
         88    4.393E+03                                 F               0         Blade 1 X force, node 30, N
         89    5.863E+02                                 F               0         Blade 1 Y force, node 30, N
         90   -1.136E+03                                 F               0         Blade 1 Z force, node 30, N
         91    6.365E+03                                 F               0         Blade 1 X force, node 31, N
         92    8.090E+02                                 F               0         Blade 1 Y force, node 31, N
         93   -1.653E+03                                 F               0         Blade 1 Z force, node 31, N
         94    5.607E+03                                 F               0         Blade 1 X force, node 32, N
         95    6.783E+02                                 F               0         Blade 1 Y force, node 32, N
         96   -1.461E+03                                 F               0         Blade 1 Z force, node 32, N
         97    5.758E+03                                 F               0         Blade 1 X force, node 33, N
         98    6.652E+02                                 F               0         Blade 1 Y force, node 33, N
         99   -1.505E+03                                 F               0         Blade 1 Z force, node 33, N
        100    5.911E+03                                 F               0         Blade 1 X force, node 34, N
        101    6.522E+02                                 F               0         Blade 1 Y force, node 34, N
        102   -1.550E+03                                 F               0         Blade 1 Z force, node 34, N
        103    6.063E+03                                 F               0         Blade 1 X force, node 35, N
        104    6.390E+02                                 F               0         Blade 1 Y force, node 35, N
        105   -1.595E+03                                 F               0         Blade 1 Z force, node 35, N
        106    6.214E+03                                 F               0         Blade 1 X force, node 36, N
        107    6.256E+02                                 F               0         Blade 1 Y force, node 36, N
        108   -1.639E+03                                 F               0         Blade 1 Z force, node 36, N
        109    7.449E+03                                 F               0         Blade 1 X force, node 37, N
        110    7.144E+02                                 F               0         Blade 1 Y force, node 37, N
        111   -1.970E+03                                 F               0         Blade 1 Z force, node 37, N
        112    5.436E+03                                 F               0         Blade 1 X force, node 38, N
        113    4.970E+02                                 F               0         Blade 1 Y force, node 38, N
        114   -1.441E+03                                 F               0         Blade 1 Z force, node 38, N
        115    6.672E+03                                 F               0         Blade 1 X force, node 39, N
        116    5.858E+02                                 F               0         Blade 1 Y force, node 39, N
        117   -1.773E+03                                 F               0         Blade 1 Z force, node 39, N
        118    5.697E+03                                 F               0         Blade 1 X force, node 40, N
        119    4.803E+02                                 F               0         Blade 1 Y force, node 40, N
        120   -1.517E+03                                 F               0         Blade 1 Z force, node 40, N
        121    8.105E+03                                 F               0         Blade 1 X force, node 41, N
        122    6.514E+02                                 F               0         Blade 1 Y force, node 41, N
        123   -2.163E+03                                 F               0         Blade 1 Z force, node 41, N
        124    7.128E+03                                 F               0         Blade 1 X force, node 42, N
        125    5.454E+02                                 F               0         Blade 1 Y force, node 42, N
        126   -1.906E+03                                 F               0         Blade 1 Z force, node 42, N
        127    7.278E+03                                 F               0         Blade 1 X force, node 43, N
        128    5.317E+02                                 F               0         Blade 1 Y force, node 43, N
        129   -1.951E+03                                 F               0         Blade 1 Z force, node 43, N
        130    7.468E+03                                 F               0         Blade 1 X force, node 44, N
        131    5.207E+02                                 F               0         Blade 1 Y force, node 44, N
        132   -2.005E+03                                 F               0         Blade 1 Z force, node 44, N
        133    7.540E+03                                 F               0         Blade 1 X force, node 45, N
        134    5.015E+02                                 F               0         Blade 1 Y force, node 45, N
        135   -2.028E+03                                 F               0         Blade 1 Z force, node 45, N
        136    7.731E+03                                 F               0         Blade 1 X force, node 46, N
        137    4.905E+02                                 F               0         Blade 1 Y force, node 46, N
        138   -2.083E+03                                 F               0         Blade 1 Z force, node 46, N
        139    9.265E+03                                 F               0         Blade 1 X force, node 47, N
        140    5.586E+02                                 F               0         Blade 1 Y force, node 47, N
        141   -2.501E+03                                 F               0         Blade 1 Z force, node 47, N
        142    6.648E+03                                 F               0         Blade 1 X force, node 48, N
        143    3.810E+02                                 F               0         Blade 1 Y force, node 48, N
        144   -1.798E+03                                 F               0         Blade 1 Z force, node 48, N
        145    8.182E+03                                 F               0         Blade 1 X force, node 49, N
        146    4.489E+02                                 F               0         Blade 1 Y force, node 49, N
        147   -2.216E+03                                 F               0         Blade 1 Z force, node 49, N
        148    7.006E+03                                 F               0         Blade 1 X force, node 50, N
        149    3.677E+02                                 F               0         Blade 1 Y force, node 50, N
        150   -1.900E+03                                 F               0         Blade 1 Z force, node 50, N
        151    9.808E+03                                 F               0         Blade 1 X force, node 51, N
        152    4.884E+02                                 F               0         Blade 1 Y force, node 51, N
        153   -2.664E+03                                 F               0         Blade 1 Z force, node 51, N
        154    8.635E+03                                 F               0         Blade 1 X force, node 52, N
        155    4.075E+02                                 F               0         Blade 1 Y force, node 52, N
        156   -2.349E+03                                 F               0         Blade 1 Z force, node 52, N
        157    8.787E+03                                 F               0         Blade 1 X force, node 53, N
        158    3.938E+02                                 F               0         Blade 1 Y force, node 53, N
        159   -2.393E+03                                 F               0         Blade 1 Z force, node 53, N
        160    9.038E+03                                 F               0         Blade 1 X force, node 54, N
        161    3.842E+02                                 F               0         Blade 1 Y force, node 54, N
        162   -2.465E+03                                 F               0         Blade 1 Z force, node 54, N
        163    8.993E+03                                 F               0         Blade 1 X force, node 55, N
        164    3.621E+02                                 F               0         Blade 1 Y force, node 55, N
        165   -2.456E+03                                 F               0         Blade 1 Z force, node 55, N
        166    9.243E+03                                 F               0         Blade 1 X force, node 56, N
        167    3.524E+02                                 F               0         Blade 1 Y force, node 56, N
        168   -2.527E+03                                 F               0         Blade 1 Z force, node 56, N
        169    1.109E+04                                 F               0         Blade 1 X force, node 57, N
        170    3.983E+02                                 F               0         Blade 1 Y force, node 57, N
        171   -3.037E+03                                 F               0         Blade 1 Z force, node 57, N
        172    7.845E+03                                 F               0         Blade 1 X force, node 58, N
        173    2.650E+02                                 F               0         Blade 1 Y force, node 58, N
        174   -2.150E+03                                 F               0         Blade 1 Z force, node 58, N
        175    9.698E+03                                 F               0         Blade 1 X force, node 59, N
        176    3.108E+02                                 F               0         Blade 1 Y force, node 59, N
        177   -2.660E+03                                 F               0         Blade 1 Z force, node 59, N
        178    8.341E+03                                 F               0         Blade 1 X force, node 60, N
        179    2.530E+02                                 F               0         Blade 1 Y force, node 60, N
        180   -2.291E+03                                 F               0         Blade 1 Z force, node 60, N
        181    1.151E+04                                 F               0         Blade 1 X force, node 61, N
        182    3.268E+02                                 F               0         Blade 1 Y force, node 61, N
        183   -3.164E+03                                 F               0         Blade 1 Z force, node 61, N
        184    1.015E+04                                 F               0         Blade 1 X force, node 62, N
        185    2.687E+02                                 F               0         Blade 1 Y force, node 62, N
        186   -2.793E+03                                 F               0         Blade 1 Z force, node 62, N
        187    1.030E+04                                 F               0         Blade 1 X force, node 63, N
        188    2.545E+02                                 F               0         Blade 1 Y force, node 63, N
        189   -2.837E+03                                 F               0         Blade 1 Z force, node 63, N
        190    1.062E+04                                 F               0         Blade 1 X force, node 64, N
        191    2.443E+02                                 F               0         Blade 1 Y force, node 64, N
        192   -2.929E+03                                 F               0         Blade 1 Z force, node 64, N
        193    1.042E+04                                 F               0         Blade 1 X force, node 65, N
        194    2.226E+02                                 F               0         Blade 1 Y force, node 65, N
        195   -2.877E+03                                 F               0         Blade 1 Z force, node 65, N
        196    1.075E+04                                 F               0         Blade 1 X force, node 66, N
        197    2.128E+02                                 F               0         Blade 1 Y force, node 66, N