
Linearized model: Predictions were generated on 31-Jan-2024 at 12:35:17 using OpenFAST, compiled as a 64-bit application using single precision at commit v3.5.1
 linked with  NWTC Subroutine Library; ElastoDyn; InflowWind; AeroDyn; ServoDyn; HydroDyn; MAP++ (<1.20.10>, <Oct-20-2023>)

Description from the FAST input file: CCT-9 Campign 4 model. Input files to be run with OpenFAST 3.5.0. GitHub branch from Lu Wang (https://github.com/luwang00/openfast/tree/dev) compiled on March 7, 2023.

Simulation information:
   Simulation time:                   505.9250 s
   Rotor Speed:                         0.8937 rad/s
   Azimuth:                             6.0418 rad
   Wind Speed:                         10.0000 m/s
   Number of continuous states:         0
   Number of discrete states:           0
   Number of constraint states:         0
   Number of inputs:                  303
   Number of outputs:                   1
   Jacobians included in this file?    No

Order of inputs:
     Column   Operating Point                     Rotating Frame? Derivative Order Description
   ---------- ---------------                     --------------- ---------------- -----------
          1   -1.080E+01                                 F               0         X-component position of node 1 (hub), m
          2    0.000E+00                                 F               0         Y-component position of node 1 (hub), m
          3    1.497E+02                                 F               0         Z-component position of node 1 (hub), m
          4    1.269E+00                                 F               0         X-component position of node 2 (blade 1, node 1), m
          5   -6.003E+00                                 F               0         Y-component position of node 2 (blade 1, node 1), m
          6    1.551E+02                                 F               0         Z-component position of node 2 (blade 1, node 1), m
          7    1.432E+00                                 F               0         X-component position of node 3 (blade 1, node 2), m
          8   -5.738E+00                                 F               0         Y-component position of node 3 (blade 1, node 2), m
          9    1.564E+02                                 F               0         Z-component position of node 3 (blade 1, node 2), m
         10    3.649E+00                                 F               0         X-component position of node 4 (blade 1, node 3), m
         11   -2.144E+00                                 F               0         Y-component position of node 4 (blade 1, node 3), m
         12    1.741E+02                                 F               0         Z-component position of node 4 (blade 1, node 3), m
         13    4.122E+00                                 F               0         X-component position of node 5 (blade 1, node 4), m
         14   -1.378E+00                                 F               0         Y-component position of node 5 (blade 1, node 4), m
         15    1.778E+02                                 F               0         Z-component position of node 5 (blade 1, node 4), m
         16    4.594E+00                                 F               0         X-component position of node 6 (blade 1, node 5), m
         17   -6.120E-01                                 F               0         Y-component position of node 6 (blade 1, node 5), m
         18    1.816E+02                                 F               0         Z-component position of node 6 (blade 1, node 5), m
         19    5.067E+00                                 F               0         X-component position of node 7 (blade 1, node 6), m
         20    1.538E-01                                 F               0         Y-component position of node 7 (blade 1, node 6), m
         21    1.854E+02                                 F               0         Z-component position of node 7 (blade 1, node 6), m
         22    5.539E+00                                 F               0         X-component position of node 8 (blade 1, node 7), m
         23    9.197E-01                                 F               0         Y-component position of node 8 (blade 1, node 7), m
         24    1.891E+02                                 F               0         Z-component position of node 8 (blade 1, node 7), m
         25    6.012E+00                                 F               0         X-component position of node 9 (blade 1, node 8), m
         26    1.686E+00                                 F               0         Y-component position of node 9 (blade 1, node 8), m
         27    1.929E+02                                 F               0         Z-component position of node 9 (blade 1, node 8), m
         28    6.484E+00                                 F               0         X-component position of node 10 (blade 1, node 9), m
         29    2.451E+00                                 F               0         Y-component position of node 10 (blade 1, node 9), m
         30    1.966E+02                                 F               0         Z-component position of node 10 (blade 1, node 9), m
         31    6.956E+00                                 F               0         X-component position of node 11 (blade 1, node 10), m
         32    3.217E+00                                 F               0         Y-component position of node 11 (blade 1, node 10), m
         33    2.004E+02                                 F               0         Z-component position of node 11 (blade 1, node 10), m
         34    7.429E+00                                 F               0         X-component position of node 12 (blade 1, node 11), m
         35    3.983E+00                                 F               0         Y-component position of node 12 (blade 1, node 11), m
         36    2.042E+02                                 F               0         Z-component position of node 12 (blade 1, node 11), m
         37    7.901E+00                                 F               0         X-component position of node 13 (blade 1, node 12), m
         38    4.749E+00                                 F               0         Y-component position of node 13 (blade 1, node 12), m
         39    2.079E+02                                 F               0         Z-component position of node 13 (blade 1, node 12), m
         40    8.374E+00                                 F               0         X-component position of node 14 (blade 1, node 13), m
         41    5.515E+00                                 F               0         Y-component position of node 14 (blade 1, node 13), m
         42    2.117E+02                                 F               0         Z-component position of node 14 (blade 1, node 13), m
         43    8.846E+00                                 F               0         X-component position of node 15 (blade 1, node 14), m
         44    6.281E+00                                 F               0         Y-component position of node 15 (blade 1, node 14), m
         45    2.154E+02                                 F               0         Z-component position of node 15 (blade 1, node 14), m
         46    9.319E+00                                 F               0         X-component position of node 16 (blade 1, node 15), m
         47    7.047E+00                                 F               0         Y-component position of node 16 (blade 1, node 15), m
         48    2.192E+02                                 F               0         Z-component position of node 16 (blade 1, node 15), m
         49    9.791E+00                                 F               0         X-component position of node 17 (blade 1, node 16), m
         50    7.813E+00                                 F               0         Y-component position of node 17 (blade 1, node 16), m
         51    2.230E+02                                 F               0         Z-component position of node 17 (blade 1, node 16), m
         52    1.026E+01                                 F               0         X-component position of node 18 (blade 1, node 17), m
         53    8.579E+00                                 F               0         Y-component position of node 18 (blade 1, node 17), m
         54    2.267E+02                                 F               0         Z-component position of node 18 (blade 1, node 17), m
         55    1.074E+01                                 F               0         X-component position of node 19 (blade 1, node 18), m
         56    9.344E+00                                 F               0         Y-component position of node 19 (blade 1, node 18), m
         57    2.305E+02                                 F               0         Z-component position of node 19 (blade 1, node 18), m
         58    1.121E+01                                 F               0         X-component position of node 20 (blade 1, node 19), m
         59    1.011E+01                                 F               0         Y-component position of node 20 (blade 1, node 19), m
         60    2.343E+02                                 F               0         Z-component position of node 20 (blade 1, node 19), m
         61    1.168E+01                                 F               0         X-component position of node 21 (blade 1, node 20), m
         62    1.088E+01                                 F               0         Y-component position of node 21 (blade 1, node 20), m
         63    2.380E+02                                 F               0         Z-component position of node 21 (blade 1, node 20), m
         64    1.215E+01                                 F               0         X-component position of node 22 (blade 1, node 21), m
         65    1.164E+01                                 F               0         Y-component position of node 22 (blade 1, node 21), m
         66    2.418E+02                                 F               0         Z-component position of node 22 (blade 1, node 21), m
         67    1.263E+01                                 F               0         X-component position of node 23 (blade 1, node 22), m
         68    1.241E+01                                 F               0         Y-component position of node 23 (blade 1, node 22), m
         69    2.455E+02                                 F               0         Z-component position of node 23 (blade 1, node 22), m
         70    1.310E+01                                 F               0         X-component position of node 24 (blade 1, node 23), m
         71    1.317E+01                                 F               0         Y-component position of node 24 (blade 1, node 23), m
         72    2.493E+02                                 F               0         Z-component position of node 24 (blade 1, node 23), m
         73    1.357E+01                                 F               0         X-component position of node 25 (blade 1, node 24), m
         74    1.394E+01                                 F               0         Y-component position of node 25 (blade 1, node 24), m
         75    2.531E+02                                 F               0         Z-component position of node 25 (blade 1, node 24), m
         76    1.404E+01                                 F               0         X-component position of node 26 (blade 1, node 25), m
         77    1.471E+01                                 F               0         Y-component position of node 26 (blade 1, node 25), m
         78    2.568E+02                                 F               0         Z-component position of node 26 (blade 1, node 25), m
         79    1.452E+01                                 F               0         X-component position of node 27 (blade 1, node 26), m
         80    1.547E+01                                 F               0         Y-component position of node 27 (blade 1, node 26), m
         81    2.606E+02                                 F               0         Z-component position of node 27 (blade 1, node 26), m
         82    1.499E+01                                 F               0         X-component position of node 28 (blade 1, node 27), m
         83    1.624E+01                                 F               0         Y-component position of node 28 (blade 1, node 27), m
         84    2.644E+02                                 F               0         Z-component position of node 28 (blade 1, node 27), m
         85    1.539E+01                                 F               0         X-component position of node 29 (blade 1, node 28), m
         86    1.689E+01                                 F               0         Y-component position of node 29 (blade 1, node 28), m
         87    2.675E+02                                 F               0         Z-component position of node 29 (blade 1, node 28), m
         88    4.315E-01                                 F               0         X-component position of node 30 (blade 2, node 1), m
         89   -1.235E+01                                 F               0         Y-component position of node 30 (blade 2, node 1), m
         90    1.480E+02                                 F               0         Z-component position of node 30 (blade 2, node 1), m
         91    3.927E-01                                 F               0         X-component position of node 31 (blade 2, node 2), m
         92   -1.362E+01                                 F               0         Y-component position of node 31 (blade 2, node 2), m
         93    1.475E+02                                 F               0         Z-component position of node 31 (blade 2, node 2), m
         94   -1.347E-01                                 F               0         X-component position of node 32 (blade 2, node 3), m
         95   -3.082E+01                                 F               0         Y-component position of node 32 (blade 2, node 3), m
         96    1.418E+02                                 F               0         Z-component position of node 32 (blade 2, node 3), m
         97   -2.471E-01                                 F               0         X-component position of node 33 (blade 2, node 4), m
         98   -3.449E+01                                 F               0         Y-component position of node 33 (blade 2, node 4), m
         99    1.406E+02                                 F               0         Z-component position of node 33 (blade 2, node 4), m
        100   -3.595E-01                                 F               0         X-component position of node 34 (blade 2, node 5), m
        101   -3.815E+01                                 F               0         Y-component position of node 34 (blade 2, node 5), m
        102    1.393E+02                                 F               0         Z-component position of node 34 (blade 2, node 5), m
        103   -4.719E-01                                 F               0         X-component position of node 35 (blade 2, node 6), m
        104   -4.182E+01                                 F               0         Y-component position of node 35 (blade 2, node 6), m
        105    1.381E+02                                 F               0         Z-component position of node 35 (blade 2, node 6), m
        106   -5.843E-01                                 F               0         X-component position of node 36 (blade 2, node 7), m
        107   -4.548E+01                                 F               0         Y-component position of node 36 (blade 2, node 7), m
        108    1.369E+02                                 F               0         Z-component position of node 36 (blade 2, node 7), m
        109   -6.967E-01                                 F               0         X-component position of node 37 (blade 2, node 8), m
        110   -4.915E+01                                 F               0         Y-component position of node 37 (blade 2, node 8), m
        111    1.356E+02                                 F               0         Z-component position of node 37 (blade 2, node 8), m
        112   -8.090E-01                                 F               0         X-component position of node 38 (blade 2, node 9), m
        113   -5.282E+01                                 F               0         Y-component position of node 38 (blade 2, node 9), m
        114    1.344E+02                                 F               0         Z-component position of node 38 (blade 2, node 9), m
        115   -9.214E-01                                 F               0         X-component position of node 39 (blade 2, node 10), m
        116   -5.648E+01                                 F               0         Y-component position of node 39 (blade 2, node 10), m
        117    1.332E+02                                 F               0         Z-component position of node 39 (blade 2, node 10), m
        118   -1.034E+00                                 F               0         X-component position of node 40 (blade 2, node 11), m
        119   -6.015E+01                                 F               0         Y-component position of node 40 (blade 2, node 11), m
        120    1.320E+02                                 F               0         Z-component position of node 40 (blade 2, node 11), m
        121   -1.146E+00                                 F               0         X-component position of node 41 (blade 2, node 12), m
        122   -6.381E+01                                 F               0         Y-component position of node 41 (blade 2, node 12), m
        123    1.307E+02                                 F               0         Z-component position of node 41 (blade 2, node 12), m
        124   -1.259E+00                                 F               0         X-component position of node 42 (blade 2, node 13), m
        125   -6.748E+01                                 F               0         Y-component position of node 42 (blade 2, node 13), m
        126    1.295E+02                                 F               0         Z-component position of node 42 (blade 2, node 13), m
        127   -1.371E+00                                 F               0         X-component position of node 43 (blade 2, node 14), m
        128   -7.115E+01                                 F               0         Y-component position of node 43 (blade 2, node 14), m
        129    1.283E+02                                 F               0         Z-component position of node 43 (blade 2, node 14), m
        130   -1.483E+00                                 F               0         X-component position of node 44 (blade 2, node 15), m
        131   -7.481E+01                                 F               0         Y-component position of node 44 (blade 2, node 15), m
        132    1.271E+02                                 F               0         Z-component position of node 44 (blade 2, node 15), m
        133   -1.596E+00                                 F               0         X-component position of node 45 (blade 2, node 16), m
        134   -7.848E+01                                 F               0         Y-component position of node 45 (blade 2, node 16), m
        135    1.258E+02                                 F               0         Z-component position of node 45 (blade 2, node 16), m
        136   -1.708E+00                                 F               0         X-component position of node 46 (blade 2, node 17), m
        137   -8.214E+01                                 F               0         Y-component position of node 46 (blade 2, node 17), m
        138    1.246E+02                                 F               0         Z-component position of node 46 (blade 2, node 17), m
        139   -1.820E+00                                 F               0         X-component position of node 47 (blade 2, node 18), m
        140   -8.581E+01                                 F               0         Y-component position of node 47 (blade 2, node 18), m
        141    1.234E+02                                 F               0         Z-component position of node 47 (blade 2, node 18), m
        142   -1.933E+00                                 F               0         X-component position of node 48 (blade 2, node 19), m
        143   -8.948E+01                                 F               0         Y-component position of node 48 (blade 2, node 19), m
        144    1.221E+02                                 F               0         Z-component position of node 48 (blade 2, node 19), m
        145   -2.045E+00                                 F               0         X-component position of node 49 (blade 2, node 20), m
        146   -9.314E+01                                 F               0         Y-component position of node 49 (blade 2, node 20), m
        147    1.209E+02                                 F               0         Z-component position of node 49 (blade 2, node 20), m
        148   -2.158E+00                                 F               0         X-component position of node 50 (blade 2, node 21), m
        149   -9.681E+01                                 F               0         Y-component position of node 50 (blade 2, node 21), m
        150    1.197E+02                                 F               0         Z-component position of node 50 (blade 2, node 21), m
        151   -2.270E+00                                 F               0         X-component position of node 51 (blade 2, node 22), m
        152   -1.005E+02                                 F               0         Y-component position of node 51 (blade 2, node 22), m
        153    1.185E+02                                 F               0         Z-component position of node 51 (blade 2, node 22), m
        154   -2.382E+00                                 F               0         X-component position of node 52 (blade 2, node 23), m
        155   -1.041E+02                                 F               0         Y-component position of node 52 (blade 2, node 23), m
        156    1.172E+02                                 F               0         Z-component position of node 52 (blade 2, node 23), m
        157   -2.495E+00                                 F               0         X-component position of node 53 (blade 2, node 24), m
        158   -1.078E+02                                 F               0         Y-component position of node 53 (blade 2, node 24), m
        159    1.160E+02                                 F               0         Z-component position of node 53 (blade 2, node 24), m
        160   -2.607E+00                                 F               0         X-component position of node 54 (blade 2, node 25), m
        161   -1.115E+02                                 F               0         Y-component position of node 54 (blade 2, node 25), m
        162    1.148E+02                                 F               0         Z-component position of node 54 (blade 2, node 25), m
        163   -2.720E+00                                 F               0         X-component position of node 55 (blade 2, node 26), m
        164   -1.151E+02                                 F               0         Y-component position of node 55 (blade 2, node 26), m
        165    1.135E+02                                 F               0         Z-component position of node 55 (blade 2, node 26), m
        166   -2.832E+00                                 F               0         X-component position of node 56 (blade 2, node 27), m
        167   -1.188E+02                                 F               0         Y-component position of node 56 (blade 2, node 27), m
        168    1.123E+02                                 F               0         Z-component position of node 56 (blade 2, node 27), m
        169   -2.927E+00                                 F               0         X-component position of node 57 (blade 2, node 28), m
        170   -1.219E+02                                 F               0         Y-component position of node 57 (blade 2, node 28), m
        171    1.113E+02                                 F               0         Z-component position of node 57 (blade 2, node 28), m
        172    7.679E-02                                 F               0         X-component position of node 58 (blade 3, node 1), m
        173   -2.946E+00                                 F               0         Y-component position of node 58 (blade 3, node 1), m
        174    1.461E+02                                 F               0         Z-component position of node 58 (blade 3, node 1), m
        175   -4.748E-02                                 F               0         X-component position of node 59 (blade 3, node 2), m
        176   -1.945E+00                                 F               0         Y-component position of node 59 (blade 3, node 2), m
        177    1.452E+02                                 F               0         Z-component position of node 59 (blade 3, node 2), m
        178   -1.737E+00                                 F               0         X-component position of node 60 (blade 3, node 3), m
        179    1.167E+01                                 F               0         Y-component position of node 60 (blade 3, node 3), m
        180    1.333E+02                                 F               0         Z-component position of node 60 (blade 3, node 3), m
        181   -2.097E+00                                 F               0         X-component position of node 61 (blade 3, node 4), m
        182    1.457E+01                                 F               0         Y-component position of node 61 (blade 3, node 4), m
        183    1.308E+02                                 F               0         Z-component position of node 61 (blade 3, node 4), m
        184   -2.457E+00                                 F               0         X-component position of node 62 (blade 3, node 5), m
        185    1.747E+01                                 F               0         Y-component position of node 62 (blade 3, node 5), m
        186    1.283E+02                                 F               0         Z-component position of node 62 (blade 3, node 5), m
        187   -2.817E+00                                 F               0         X-component position of node 63 (blade 3, node 6), m
        188    2.037E+01                                 F               0         Y-component position of node 63 (blade 3, node 6), m
        189    1.257E+02                                 F               0         Z-component position of node 63 (blade 3, node 6), m
        190   -3.177E+00                                 F               0         X-component position of node 64 (blade 3, node 7), m
        191    2.327E+01                                 F               0         Y-component position of node 64 (blade 3, node 7), m
        192    1.232E+02                                 F               0         Z-component position of node 64 (blade 3, node 7), m
        193   -3.537E+00                                 F               0         X-component position of node 65 (blade 3, node 8), m
        194    2.617E+01                                 F               0         Y-component position of node 65 (blade 3, node 8), m
        195    1.207E+02                                 F               0         Z-component position of node 65 (blade 3, node 8), m
        196   -3.897E+00                                 F               0         X-component position of node 66 (blade 3, node 9), m
        197    2.907E+01                                 F               0         Y-component position of node 66 (blade 3, node 9), m
        198    1.181E+02                                 F               0         Z-component position of node 66 (blade 3, node 9), m
        199   -4.257E+00                                 F               0         X-component position of node 67 (blade 3, node 10), m
        200    3.197E+01                                 F               0         Y-component position of node 67 (blade 3, node 10), m
        201    1.156E+02                                 F               0         Z-component position of node 67 (blade 3, node 10), m
        202   -4.617E+00                                 F               0         X-component position of node 68 (blade 3, node 11), m
        203    3.487E+01                                 F               0         Y-component position of node 68 (blade 3, node 11), m
        204    1.131E+02                                 F               0         Z-component position of node 68 (blade 3, node 11), m
        205   -4.978E+00                                 F               0         X-component position of node 69 (blade 3, node 12), m
        206    3.777E+01                                 F               0         Y-component position of node 69 (blade 3, node 12), m
        207    1.105E+02                                 F               0         Z-component position of node 69 (blade 3, node 12), m
        208   -5.338E+00                                 F               0         X-component position of node 70 (blade 3, node 13), m
        209    4.067E+01                                 F               0         Y-component position of node 70 (blade 3, node 13), m
        210    1.080E+02                                 F               0         Z-component position of node 70 (blade 3, node 13), m
        211   -5.698E+00                                 F               0         X-component position of node 71 (blade 3, node 14), m