
Linearized model: Predictions were generated on 06-Feb-2024 at 16:18:08 using OpenFAST, compiled as a 64-bit application using single precision at commit v3.5.1
 linked with  NWTC Subroutine Library; ElastoDyn; InflowWind; AeroDyn; ServoDyn; HydroDyn; MAP++ (<1.20.10>, <Oct-20-2023>)

Description from the FAST input file: CCT-9 Campign 4 model. Input files to be run with OpenFAST 3.5.0. GitHub branch from Lu Wang (https://github.com/luwang00/openfast/tree/dev) compiled on March 7, 2023.

Simulation information:
   Simulation time:                  1006.7250 s
   Rotor Speed:                         1.0419 rad/s
   Azimuth:                             2.2244 rad
   Wind Speed:                         12.0000 m/s
   Number of continuous states:        18
   Number of discrete states:           0
   Number of constraint states:         0
   Number of inputs:                 1890
   Number of outputs:                  19
   Jacobians included in this file?    No

Order of continuous states:
   Row/Column Operating Point                     Rotating Frame? Derivative Order Description
   ---------- ---------------                     --------------- ---------------- -----------
          1    1.231E+01                                 F               2         Platform horizontal surge translation DOF (internal DOF index = DOF_Sg), m
          2   -2.474E-01                                 F               2         Platform vertical heave translation DOF (internal DOF index = DOF_Hv), m
          3    4.690E-02                                 F               2         Platform roll tilt rotation DOF (internal DOF index = DOF_R), rad
          4    1.559E-01                                 F               2         Platform pitch tilt rotation DOF (internal DOF index = DOF_P), rad
          5    1.081E+00                                 F               2         1st tower fore-aft bending mode DOF (internal DOF index = DOF_TFA1), m
          6    1.773E-01                                 F               2         1st tower side-to-side bending mode DOF (internal DOF index = DOF_TSS1), m
          7    1.607E-03                                 F               2         2nd tower fore-aft bending mode DOF (internal DOF index = DOF_TFA2), m
          8    7.575E-05                                 F               2         2nd tower side-to-side bending mode DOF (internal DOF index = DOF_TSS2), m
          9    6.536E-01                                 F               2         Variable speed generator DOF (internal DOF index = DOF_GeAz), rad
         10    1.858E-04                                 F               2         First time derivative of Platform horizontal surge translation DOF (internal DOF index = DOF_Sg), m/s
         11    5.000E-03                                 F               2         First time derivative of Platform vertical heave translation DOF (internal DOF index = DOF_Hv), m/s
         12   -1.855E-05                                 F               2         First time derivative of Platform roll tilt rotation DOF (internal DOF index = DOF_R), rad/s
         13    8.998E-06                                 F               2         First time derivative of Platform pitch tilt rotation DOF (internal DOF index = DOF_P), rad/s
         14    1.278E-03                                 F               2         First time derivative of 1st tower fore-aft bending mode DOF (internal DOF index = DOF_TFA1), m/s
         15    9.630E-04                                 F               2         First time derivative of 1st tower side-to-side bending mode DOF (internal DOF index = DOF_TSS1), m/s
         16    1.529E-05                                 F               2         First time derivative of 2nd tower fore-aft bending mode DOF (internal DOF index = DOF_TFA2), m/s
         17   -7.788E-07                                 F               2         First time derivative of 2nd tower side-to-side bending mode DOF (internal DOF index = DOF_TSS2), m/s
         18    1.042E+00                                 F               2         First time derivative of Variable speed generator DOF (internal DOF index = DOF_GeAz), rad/s

Order of continuous state derivatives:
   Row/Column Operating Point                     Rotating Frame? Derivative Order Description
   ---------- ---------------                     --------------- ---------------- -----------
          1    1.858E-04                                 F               2         First time derivative of Platform horizontal surge translation DOF (internal DOF index = DOF_Sg), m/s
          2    5.000E-03                                 F               2         First time derivative of Platform vertical heave translation DOF (internal DOF index = DOF_Hv), m/s
          3   -1.855E-05                                 F               2         First time derivative of Platform roll tilt rotation DOF (internal DOF index = DOF_R), rad/s
          4    8.998E-06                                 F               2         First time derivative of Platform pitch tilt rotation DOF (internal DOF index = DOF_P), rad/s
          5    1.278E-03                                 F               2         First time derivative of 1st tower fore-aft bending mode DOF (internal DOF index = DOF_TFA1), m/s
          6    9.630E-04                                 F               2         First time derivative of 1st tower side-to-side bending mode DOF (internal DOF index = DOF_TSS1), m/s
          7    1.529E-05                                 F               2         First time derivative of 2nd tower fore-aft bending mode DOF (internal DOF index = DOF_TFA2), m/s
          8   -7.788E-07                                 F               2         First time derivative of 2nd tower side-to-side bending mode DOF (internal DOF index = DOF_TSS2), m/s
          9    1.042E+00                                 F               2         First time derivative of Variable speed generator DOF (internal DOF index = DOF_GeAz), rad/s
         10    2.110E-04                                 F               2         First time derivative of First time derivative of Platform horizontal surge translation DOF (internal DOF index = DOF_Sg), m/s/s
         11    5.598E-04                                 F               2         First time derivative of First time derivative of Platform vertical heave translation DOF (internal DOF index = DOF_Hv), m/s/s
         12    4.073E-05                                 F               2         First time derivative of First time derivative of Platform roll tilt rotation DOF (internal DOF index = DOF_R), rad/s/s
         13    1.182E-05                                 F               2         First time derivative of First time derivative of Platform pitch tilt rotation DOF (internal DOF index = DOF_P), rad/s/s
         14   -2.690E-03                                 F               2         First time derivative of First time derivative of 1st tower fore-aft bending mode DOF (internal DOF index = DOF_TFA1), m/s/s
         15   -1.046E-03                                 F               2         First time derivative of First time derivative of 1st tower side-to-side bending mode DOF (internal DOF index = DOF_TSS1), m/s/s
         16   -2.416E-06                                 F               2         First time derivative of First time derivative of 2nd tower fore-aft bending mode DOF (internal DOF index = DOF_TFA2), m/s/s
         17    9.042E-06                                 F               2         First time derivative of First time derivative of 2nd tower side-to-side bending mode DOF (internal DOF index = DOF_TSS2), m/s/s
         18    1.291E-04                                 F               2         First time derivative of First time derivative of Variable speed generator DOF (internal DOF index = DOF_GeAz), rad/s/s

Order of inputs:
     Column   Operating Point                     Rotating Frame? Derivative Order Description
   ---------- ---------------                     --------------- ---------------- -----------
          1    1.463E+02                                 F               0         Blade 1 X force, node 1, N
          2   -1.215E+02                                 F               0         Blade 1 Y force, node 1, N
          3    1.084E+02                                 F               0         Blade 1 Z force, node 1, N
          4    5.147E+02                                 F               0         Blade 1 X force, node 2, N
          5   -2.071E+02                                 F               0         Blade 1 Y force, node 2, N
          6    1.116E+02                                 F               0         Blade 1 Z force, node 2, N
          7    6.085E+02                                 F               0         Blade 1 X force, node 3, N
          8   -1.457E+02                                 F               0         Blade 1 Y force, node 3, N
          9    1.045E+01                                 F               0         Blade 1 Z force, node 3, N
         10    7.585E+02                                 F               0         Blade 1 X force, node 4, N
         11   -1.114E+02                                 F               0         Blade 1 Y force, node 4, N
         12   -7.292E+01                                 F               0         Blade 1 Z force, node 4, N
         13    9.084E+02                                 F               0         Blade 1 X force, node 5, N
         14   -7.718E+01                                 F               0         Blade 1 Y force, node 5, N
         15   -1.563E+02                                 F               0         Blade 1 Z force, node 5, N
         16    1.058E+03                                 F               0         Blade 1 X force, node 6, N
         17   -4.292E+01                                 F               0         Blade 1 Y force, node 6, N
         18   -2.397E+02                                 F               0         Blade 1 Z force, node 6, N
         19    1.208E+03                                 F               0         Blade 1 X force, node 7, N
         20   -8.650E+00                                 F               0         Blade 1 Y force, node 7, N
         21   -3.230E+02                                 F               0         Blade 1 Z force, node 7, N
         22    1.358E+03                                 F               0         Blade 1 X force, node 8, N
         23    2.562E+01                                 F               0         Blade 1 Y force, node 8, N
         24   -4.064E+02                                 F               0         Blade 1 Z force, node 8, N
         25    1.508E+03                                 F               0         Blade 1 X force, node 9, N
         26    5.988E+01                                 F               0         Blade 1 Y force, node 9, N
         27   -4.898E+02                                 F               0         Blade 1 Z force, node 9, N
         28    1.658E+03                                 F               0         Blade 1 X force, node 10, N
         29    9.415E+01                                 F               0         Blade 1 Y force, node 10, N
         30   -5.731E+02                                 F               0         Blade 1 Z force, node 10, N
         31    1.808E+03                                 F               0         Blade 1 X force, node 11, N
         32    1.284E+02                                 F               0         Blade 1 Y force, node 11, N
         33   -6.565E+02                                 F               0         Blade 1 Z force, node 11, N
         34    1.958E+03                                 F               0         Blade 1 X force, node 12, N
         35    1.627E+02                                 F               0         Blade 1 Y force, node 12, N
         36   -7.399E+02                                 F               0         Blade 1 Z force, node 12, N
         37    2.108E+03                                 F               0         Blade 1 X force, node 13, N
         38    1.969E+02                                 F               0         Blade 1 Y force, node 13, N
         39   -8.233E+02                                 F               0         Blade 1 Z force, node 13, N
         40    2.258E+03                                 F               0         Blade 1 X force, node 14, N
         41    2.312E+02                                 F               0         Blade 1 Y force, node 14, N
         42   -9.066E+02                                 F               0         Blade 1 Z force, node 14, N
         43    2.408E+03                                 F               0         Blade 1 X force, node 15, N
         44    2.655E+02                                 F               0         Blade 1 Y force, node 15, N
         45   -9.900E+02                                 F               0         Blade 1 Z force, node 15, N
         46    2.558E+03                                 F               0         Blade 1 X force, node 16, N
         47    2.997E+02                                 F               0         Blade 1 Y force, node 16, N
         48   -1.073E+03                                 F               0         Blade 1 Z force, node 16, N
         49    3.144E+03                                 F               0         Blade 1 X force, node 17, N
         50    3.861E+02                                 F               0         Blade 1 Y force, node 17, N
         51   -1.341E+03                                 F               0         Blade 1 Z force, node 17, N
         52    2.434E+03                                 F               0         Blade 1 X force, node 18, N
         53    2.909E+02                                 F               0         Blade 1 Y force, node 18, N
         54   -1.028E+03                                 F               0         Blade 1 Z force, node 18, N
         55    3.037E+03                                 F               0         Blade 1 X force, node 19, N
         56    3.454E+02                                 F               0         Blade 1 Y force, node 19, N
         57   -1.262E+03                                 F               0         Blade 1 Z force, node 19, N
         58    2.629E+03                                 F               0         Blade 1 X force, node 20, N
         59    2.854E+02                                 F               0         Blade 1 Y force, node 20, N
         60   -1.075E+03                                 F               0         Blade 1 Z force, node 20, N
         61    3.947E+03                                 F               0         Blade 1 X force, node 21, N
         62    4.056E+02                                 F               0         Blade 1 Y force, node 21, N
         63   -1.587E+03                                 F               0         Blade 1 Z force, node 21, N
         64    3.538E+03                                 F               0         Blade 1 X force, node 22, N
         65    3.433E+02                                 F               0         Blade 1 Y force, node 22, N
         66   -1.397E+03                                 F               0         Blade 1 Z force, node 22, N
         67    3.683E+03                                 F               0         Blade 1 X force, node 23, N
         68    3.393E+02                                 F               0         Blade 1 Y force, node 23, N
         69   -1.432E+03                                 F               0         Blade 1 Z force, node 23, N
         70    3.894E+03                                 F               0         Blade 1 X force, node 24, N
         71    3.409E+02                                 F               0         Blade 1 Y force, node 24, N
         72   -1.493E+03                                 F               0         Blade 1 Z force, node 24, N
         73    4.036E+03                                 F               0         Blade 1 X force, node 25, N
         74    3.354E+02                                 F               0         Blade 1 Y force, node 25, N
         75   -1.525E+03                                 F               0         Blade 1 Z force, node 25, N
         76    4.201E+03                                 F               0         Blade 1 X force, node 26, N
         77    3.316E+02                                 F               0         Blade 1 Y force, node 26, N
         78   -1.566E+03                                 F               0         Blade 1 Z force, node 26, N
         79    5.087E+03                                 F               0         Blade 1 X force, node 27, N
         80    3.808E+02                                 F               0         Blade 1 Y force, node 27, N
         81   -1.871E+03                                 F               0         Blade 1 Z force, node 27, N
         82    3.808E+03                                 F               0         Blade 1 X force, node 28, N
         83    2.703E+02                                 F               0         Blade 1 Y force, node 28, N
         84   -1.382E+03                                 F               0         Blade 1 Z force, node 28, N
         85    4.694E+03                                 F               0         Blade 1 X force, node 29, N
         86    3.184E+02                                 F               0         Blade 1 Y force, node 29, N
         87   -1.686E+03                                 F               0         Blade 1 Z force, node 29, N
         88    4.022E+03                                 F               0         Blade 1 X force, node 30, N
         89    2.610E+02                                 F               0         Blade 1 Y force, node 30, N
         90   -1.430E+03                                 F               0         Blade 1 Z force, node 30, N
         91    5.858E+03                                 F               0         Blade 1 X force, node 31, N
         92    3.608E+02                                 F               0         Blade 1 Y force, node 31, N
         93   -2.059E+03                                 F               0         Blade 1 Z force, node 31, N
         94    5.185E+03                                 F               0         Blade 1 X force, node 32, N
         95    3.025E+02                                 F               0         Blade 1 Y force, node 32, N
         96   -1.802E+03                                 F               0         Blade 1 Z force, node 32, N
         97    5.347E+03                                 F               0         Blade 1 X force, node 33, N
         98    2.967E+02                                 F               0         Blade 1 Y force, node 33, N
         99   -1.840E+03                                 F               0         Blade 1 Z force, node 33, N
        100    5.510E+03                                 F               0         Blade 1 X force, node 34, N
        101    2.908E+02                                 F               0         Blade 1 Y force, node 34, N
        102   -1.878E+03                                 F               0         Blade 1 Z force, node 34, N
        103    5.673E+03                                 F               0         Blade 1 X force, node 35, N
        104    2.846E+02                                 F               0         Blade 1 Y force, node 35, N
        105   -1.915E+03                                 F               0         Blade 1 Z force, node 35, N
        106    5.834E+03                                 F               0         Blade 1 X force, node 36, N
        107    2.781E+02                                 F               0         Blade 1 Y force, node 36, N
        108   -1.952E+03                                 F               0         Blade 1 Z force, node 36, N
        109    7.018E+03                                 F               0         Blade 1 X force, node 37, N
        110    3.169E+02                                 F               0         Blade 1 Y force, node 37, N
        111   -2.326E+03                                 F               0         Blade 1 Z force, node 37, N
        112    5.137E+03                                 F               0         Blade 1 X force, node 38, N
        113    2.198E+02                                 F               0         Blade 1 Y force, node 38, N
        114   -1.688E+03                                 F               0         Blade 1 Z force, node 38, N
        115    6.322E+03                                 F               0         Blade 1 X force, node 39, N
        116    2.582E+02                                 F               0         Blade 1 Y force, node 39, N
        117   -2.062E+03                                 F               0         Blade 1 Z force, node 39, N
        118    5.411E+03                                 F               0         Blade 1 X force, node 40, N
        119    2.110E+02                                 F               0         Blade 1 Y force, node 40, N
        120   -1.753E+03                                 F               0         Blade 1 Z force, node 40, N
        121    7.719E+03                                 F               0         Blade 1 X force, node 41, N
        122    2.848E+02                                 F               0         Blade 1 Y force, node 41, N
        123   -2.480E+03                                 F               0         Blade 1 Z force, node 41, N
        124    6.805E+03                                 F               0         Blade 1 X force, node 42, N
        125    2.370E+02                                 F               0         Blade 1 Y force, node 42, N
        126   -2.169E+03                                 F               0         Blade 1 Z force, node 42, N
        127    6.965E+03                                 F               0         Blade 1 X force, node 43, N
        128    2.296E+02                                 F               0         Blade 1 Y force, node 43, N
        129   -2.204E+03                                 F               0         Blade 1 Z force, node 43, N
        130    7.162E+03                                 F               0         Blade 1 X force, node 44, N
        131    2.233E+02                                 F               0         Blade 1 Y force, node 44, N
        132   -2.251E+03                                 F               0         Blade 1 Z force, node 44, N
        133    7.246E+03                                 F               0         Blade 1 X force, node 45, N
        134    2.133E+02                                 F               0         Blade 1 Y force, node 45, N
        135   -2.262E+03                                 F               0         Blade 1 Z force, node 45, N
        136    7.443E+03                                 F               0         Blade 1 X force, node 46, N
        137    2.068E+02                                 F               0         Blade 1 Y force, node 46, N
        138   -2.308E+03                                 F               0         Blade 1 Z force, node 46, N
        139    8.937E+03                                 F               0         Blade 1 X force, node 47, N
        140    2.332E+02                                 F               0         Blade 1 Y force, node 47, N
        141   -2.753E+03                                 F               0         Blade 1 Z force, node 47, N
        142    6.425E+03                                 F               0         Blade 1 X force, node 48, N
        143    1.573E+02                                 F               0         Blade 1 Y force, node 48, N
        144   -1.967E+03                                 F               0         Blade 1 Z force, node 48, N
        145    7.918E+03                                 F               0         Blade 1 X force, node 49, N
        146    1.834E+02                                 F               0         Blade 1 Y force, node 49, N
        147   -2.411E+03                                 F               0         Blade 1 Z force, node 49, N
        148    6.790E+03                                 F               0         Blade 1 X force, node 50, N
        149    1.485E+02                                 F               0         Blade 1 Y force, node 50, N
        150   -2.057E+03                                 F               0         Blade 1 Z force, node 50, N
        151    9.521E+03                                 F               0         Blade 1 X force, node 51, N
        152    1.944E+02                                 F               0         Blade 1 Y force, node 51, N
        153   -2.867E+03                                 F               0         Blade 1 Z force, node 51, N
        154    8.395E+03                                 F               0         Blade 1 X force, node 52, N
        155    1.595E+02                                 F               0         Blade 1 Y force, node 52, N
        156   -2.513E+03                                 F               0         Blade 1 Z force, node 52, N
        157    8.555E+03                                 F               0         Blade 1 X force, node 53, N
        158    1.516E+02                                 F               0         Blade 1 Y force, node 53, N
        159   -2.548E+03                                 F               0         Blade 1 Z force, node 53, N
        160    8.811E+03                                 F               0         Blade 1 X force, node 54, N
        161    1.452E+02                                 F               0         Blade 1 Y force, node 54, N
        162   -2.611E+03                                 F               0         Blade 1 Z force, node 54, N
        163    8.778E+03                                 F               0         Blade 1 X force, node 55, N
        164    1.339E+02                                 F               0         Blade 1 Y force, node 55, N
        165   -2.588E+03                                 F               0         Blade 1 Z force, node 55, N
        166    9.032E+03                                 F               0         Blade 1 X force, node 56, N
        167    1.273E+02                                 F               0         Blade 1 Y force, node 56, N
        168   -2.650E+03                                 F               0         Blade 1 Z force, node 56, N
        169    1.086E+04                                 F               0         Blade 1 X force, node 57, N
        170    1.399E+02                                 F               0         Blade 1 Y force, node 57, N
        171   -3.169E+03                                 F               0         Blade 1 Z force, node 57, N
        172    7.685E+03                                 F               0         Blade 1 X force, node 58, N
        173    9.014E+01                                 F               0         Blade 1 Y force, node 58, N
        174   -2.232E+03                                 F               0         Blade 1 Z force, node 58, N
        175    9.508E+03                                 F               0         Blade 1 X force, node 59, N
        176    1.026E+02                                 F               0         Blade 1 Y force, node 59, N
        177   -2.751E+03                                 F               0         Blade 1 Z force, node 59, N
        178    8.186E+03                                 F               0         Blade 1 X force, node 60, N
        179    8.067E+01                                 F               0         Blade 1 Y force, node 60, N
        180   -2.359E+03                                 F               0         Blade 1 Z force, node 60, N
        181    1.131E+04                                 F               0         Blade 1 X force, node 61, N
        182    9.945E+01                                 F               0         Blade 1 Y force, node 61, N
        183   -3.243E+03                                 F               0         Blade 1 Z force, node 61, N
        184    9.979E+03                                 F               0         Blade 1 X force, node 62, N
        185    7.727E+01                                 F               0         Blade 1 Y force, node 62, N
        186   -2.850E+03                                 F               0         Blade 1 Z force, node 62, N
        187    1.013E+04                                 F               0         Blade 1 X force, node 63, N
        188    6.867E+01                                 F               0         Blade 1 Y force, node 63, N
        189   -2.882E+03                                 F               0         Blade 1 Z force, node 63, N
        190    1.046E+04                                 F               0         Blade 1 X force, node 64, N
        191    6.106E+01                                 F               0         Blade 1 Y force, node 64, N
        192   -2.963E+03                                 F               0         Blade 1 Z force, node 64, N
        193    1.028E+04                                 F               0         Blade 1 X force, node 65, N
        194    5.072E+01                                 F               0         Blade 1 Y force, node 65, N
        195   -2.900E+03                                 F               0         Blade 1 Z force, node 65, N
        196    1.061E+04                                 F               0         Blade 1 X force, node 66, N
        197    4.329E+01                                 F               0         Blade 1 Y force, node 66, N