
Linearized model: Predictions were generated on 06-Feb-2024 at 16:18:08 using OpenFAST, compiled as a 64-bit application using single precision at commit v3.5.1
 linked with  NWTC Subroutine Library; ElastoDyn; InflowWind; AeroDyn; ServoDyn; HydroDyn; MAP++ (<1.20.10>, <Oct-20-2023>)

Description from the FAST input file: CCT-9 Campign 4 model. Input files to be run with OpenFAST 3.5.0. GitHub branch from Lu Wang (https://github.com/luwang00/openfast/tree/dev) compiled on March 7, 2023.

Simulation information:
   Simulation time:                  1002.2500 s
   Rotor Speed:                         1.0421 rad/s
   Azimuth:                             3.8449 rad
   Wind Speed:                         12.0000 m/s
   Number of continuous states:         0
   Number of discrete states:           0
   Number of constraint states:         0
   Number of inputs:                  303
   Number of outputs:                   1
   Jacobians included in this file?    No

Order of inputs:
     Column   Operating Point                     Rotating Frame? Derivative Order Description
   ---------- ---------------                     --------------- ---------------- -----------
          1   -1.080E+01                                 F               0         X-component position of node 1 (hub), m
          2    0.000E+00                                 F               0         Y-component position of node 1 (hub), m
          3    1.497E+02                                 F               0         Z-component position of node 1 (hub), m
          4    2.474E+01                                 F               0         X-component position of node 2 (blade 1, node 1), m
          5   -3.961E+00                                 F               0         Y-component position of node 2 (blade 1, node 1), m
          6    1.452E+02                                 F               0         Z-component position of node 2 (blade 1, node 1), m
          7    2.448E+01                                 F               0         X-component position of node 3 (blade 1, node 2), m
          8   -3.049E+00                                 F               0         Y-component position of node 3 (blade 1, node 2), m
          9    1.443E+02                                 F               0         Z-component position of node 3 (blade 1, node 2), m
         10    2.089E+01                                 F               0         X-component position of node 4 (blade 1, node 3), m
         11    9.356E+00                                 F               0         Y-component position of node 4 (blade 1, node 3), m
         12    1.316E+02                                 F               0         Z-component position of node 4 (blade 1, node 3), m
         13    2.013E+01                                 F               0         X-component position of node 5 (blade 1, node 4), m
         14    1.200E+01                                 F               0         Y-component position of node 5 (blade 1, node 4), m
         15    1.288E+02                                 F               0         Z-component position of node 5 (blade 1, node 4), m
         16    1.936E+01                                 F               0         X-component position of node 6 (blade 1, node 5), m
         17    1.464E+01                                 F               0         Y-component position of node 6 (blade 1, node 5), m
         18    1.261E+02                                 F               0         Z-component position of node 6 (blade 1, node 5), m
         19    1.860E+01                                 F               0         X-component position of node 7 (blade 1, node 6), m
         20    1.729E+01                                 F               0         Y-component position of node 7 (blade 1, node 6), m
         21    1.234E+02                                 F               0         Z-component position of node 7 (blade 1, node 6), m
         22    1.783E+01                                 F               0         X-component position of node 8 (blade 1, node 7), m
         23    1.993E+01                                 F               0         Y-component position of node 8 (blade 1, node 7), m
         24    1.207E+02                                 F               0         Z-component position of node 8 (blade 1, node 7), m
         25    1.707E+01                                 F               0         X-component position of node 9 (blade 1, node 8), m
         26    2.257E+01                                 F               0         Y-component position of node 9 (blade 1, node 8), m
         27    1.180E+02                                 F               0         Z-component position of node 9 (blade 1, node 8), m
         28    1.631E+01                                 F               0         X-component position of node 10 (blade 1, node 9), m
         29    2.522E+01                                 F               0         Y-component position of node 10 (blade 1, node 9), m
         30    1.152E+02                                 F               0         Z-component position of node 10 (blade 1, node 9), m
         31    1.554E+01                                 F               0         X-component position of node 11 (blade 1, node 10), m
         32    2.786E+01                                 F               0         Y-component position of node 11 (blade 1, node 10), m
         33    1.125E+02                                 F               0         Z-component position of node 11 (blade 1, node 10), m
         34    1.478E+01                                 F               0         X-component position of node 12 (blade 1, node 11), m
         35    3.050E+01                                 F               0         Y-component position of node 12 (blade 1, node 11), m
         36    1.098E+02                                 F               0         Z-component position of node 12 (blade 1, node 11), m
         37    1.401E+01                                 F               0         X-component position of node 13 (blade 1, node 12), m
         38    3.315E+01                                 F               0         Y-component position of node 13 (blade 1, node 12), m
         39    1.071E+02                                 F               0         Z-component position of node 13 (blade 1, node 12), m
         40    1.325E+01                                 F               0         X-component position of node 14 (blade 1, node 13), m
         41    3.579E+01                                 F               0         Y-component position of node 14 (blade 1, node 13), m
         42    1.044E+02                                 F               0         Z-component position of node 14 (blade 1, node 13), m
         43    1.249E+01                                 F               0         X-component position of node 15 (blade 1, node 14), m
         44    3.843E+01                                 F               0         Y-component position of node 15 (blade 1, node 14), m
         45    1.017E+02                                 F               0         Z-component position of node 15 (blade 1, node 14), m
         46    1.172E+01                                 F               0         X-component position of node 16 (blade 1, node 15), m
         47    4.108E+01                                 F               0         Y-component position of node 16 (blade 1, node 15), m
         48    9.893E+01                                 F               0         Z-component position of node 16 (blade 1, node 15), m
         49    1.096E+01                                 F               0         X-component position of node 17 (blade 1, node 16), m
         50    4.372E+01                                 F               0         Y-component position of node 17 (blade 1, node 16), m
         51    9.621E+01                                 F               0         Z-component position of node 17 (blade 1, node 16), m
         52    1.019E+01                                 F               0         X-component position of node 18 (blade 1, node 17), m
         53    4.636E+01                                 F               0         Y-component position of node 18 (blade 1, node 17), m
         54    9.350E+01                                 F               0         Z-component position of node 18 (blade 1, node 17), m
         55    9.428E+00                                 F               0         X-component position of node 19 (blade 1, node 18), m
         56    4.900E+01                                 F               0         Y-component position of node 19 (blade 1, node 18), m
         57    9.078E+01                                 F               0         Z-component position of node 19 (blade 1, node 18), m
         58    8.664E+00                                 F               0         X-component position of node 20 (blade 1, node 19), m
         59    5.165E+01                                 F               0         Y-component position of node 20 (blade 1, node 19), m
         60    8.806E+01                                 F               0         Z-component position of node 20 (blade 1, node 19), m
         61    7.899E+00                                 F               0         X-component position of node 21 (blade 1, node 20), m
         62    5.429E+01                                 F               0         Y-component position of node 21 (blade 1, node 20), m
         63    8.534E+01                                 F               0         Z-component position of node 21 (blade 1, node 20), m
         64    7.135E+00                                 F               0         X-component position of node 22 (blade 1, node 21), m
         65    5.693E+01                                 F               0         Y-component position of node 22 (blade 1, node 21), m
         66    8.262E+01                                 F               0         Z-component position of node 22 (blade 1, node 21), m
         67    6.371E+00                                 F               0         X-component position of node 23 (blade 1, node 22), m
         68    5.958E+01                                 F               0         Y-component position of node 23 (blade 1, node 22), m
         69    7.991E+01                                 F               0         Z-component position of node 23 (blade 1, node 22), m
         70    5.607E+00                                 F               0         X-component position of node 24 (blade 1, node 23), m
         71    6.222E+01                                 F               0         Y-component position of node 24 (blade 1, node 23), m
         72    7.719E+01                                 F               0         Z-component position of node 24 (blade 1, node 23), m
         73    4.842E+00                                 F               0         X-component position of node 25 (blade 1, node 24), m
         74    6.486E+01                                 F               0         Y-component position of node 25 (blade 1, node 24), m
         75    7.447E+01                                 F               0         Z-component position of node 25 (blade 1, node 24), m
         76    4.078E+00                                 F               0         X-component position of node 26 (blade 1, node 25), m
         77    6.751E+01                                 F               0         Y-component position of node 26 (blade 1, node 25), m
         78    7.175E+01                                 F               0         Z-component position of node 26 (blade 1, node 25), m
         79    3.314E+00                                 F               0         X-component position of node 27 (blade 1, node 26), m
         80    7.015E+01                                 F               0         Y-component position of node 27 (blade 1, node 26), m
         81    6.903E+01                                 F               0         Z-component position of node 27 (blade 1, node 26), m
         82    2.550E+00                                 F               0         X-component position of node 28 (blade 1, node 27), m
         83    7.279E+01                                 F               0         Y-component position of node 28 (blade 1, node 27), m
         84    6.631E+01                                 F               0         Z-component position of node 28 (blade 1, node 27), m
         85    1.902E+00                                 F               0         X-component position of node 29 (blade 1, node 28), m
         86    7.503E+01                                 F               0         Y-component position of node 29 (blade 1, node 28), m
         87    6.401E+01                                 F               0         Z-component position of node 29 (blade 1, node 28), m
         88    2.726E+01                                 F               0         X-component position of node 30 (blade 2, node 1), m
         89   -6.138E+00                                 F               0         Y-component position of node 30 (blade 2, node 1), m
         90    1.542E+02                                 F               0         Z-component position of node 30 (blade 2, node 1), m
         91    2.760E+01                                 F               0         X-component position of node 31 (blade 2, node 2), m
         92   -5.750E+00                                 F               0         Y-component position of node 31 (blade 2, node 2), m
         93    1.555E+02                                 F               0         Z-component position of node 31 (blade 2, node 2), m
         94    3.226E+01                                 F               0         X-component position of node 32 (blade 2, node 3), m
         95   -4.765E-01                                 F               0         Y-component position of node 32 (blade 2, node 3), m
         96    1.722E+02                                 F               0         Z-component position of node 32 (blade 2, node 3), m
         97    3.325E+01                                 F               0         X-component position of node 33 (blade 2, node 4), m
         98    6.471E-01                                 F               0         Y-component position of node 33 (blade 2, node 4), m
         99    1.758E+02                                 F               0         Z-component position of node 33 (blade 2, node 4), m
        100    3.424E+01                                 F               0         X-component position of node 34 (blade 2, node 5), m
        101    1.771E+00                                 F               0         Y-component position of node 34 (blade 2, node 5), m
        102    1.793E+02                                 F               0         Z-component position of node 34 (blade 2, node 5), m
        103    3.523E+01                                 F               0         X-component position of node 35 (blade 2, node 6), m
        104    2.895E+00                                 F               0         Y-component position of node 35 (blade 2, node 6), m
        105    1.829E+02                                 F               0         Z-component position of node 35 (blade 2, node 6), m
        106    3.622E+01                                 F               0         X-component position of node 36 (blade 2, node 7), m
        107    4.018E+00                                 F               0         Y-component position of node 36 (blade 2, node 7), m
        108    1.865E+02                                 F               0         Z-component position of node 36 (blade 2, node 7), m
        109    3.722E+01                                 F               0         X-component position of node 37 (blade 2, node 8), m
        110    5.142E+00                                 F               0         Y-component position of node 37 (blade 2, node 8), m
        111    1.900E+02                                 F               0         Z-component position of node 37 (blade 2, node 8), m
        112    3.821E+01                                 F               0         X-component position of node 38 (blade 2, node 9), m
        113    6.266E+00                                 F               0         Y-component position of node 38 (blade 2, node 9), m
        114    1.936E+02                                 F               0         Z-component position of node 38 (blade 2, node 9), m
        115    3.920E+01                                 F               0         X-component position of node 39 (blade 2, node 10), m
        116    7.389E+00                                 F               0         Y-component position of node 39 (blade 2, node 10), m
        117    1.972E+02                                 F               0         Z-component position of node 39 (blade 2, node 10), m
        118    4.019E+01                                 F               0         X-component position of node 40 (blade 2, node 11), m
        119    8.513E+00                                 F               0         Y-component position of node 40 (blade 2, node 11), m
        120    2.007E+02                                 F               0         Z-component position of node 40 (blade 2, node 11), m
        121    4.118E+01                                 F               0         X-component position of node 41 (blade 2, node 12), m
        122    9.637E+00                                 F               0         Y-component position of node 41 (blade 2, node 12), m
        123    2.043E+02                                 F               0         Z-component position of node 41 (blade 2, node 12), m
        124    4.217E+01                                 F               0         X-component position of node 42 (blade 2, node 13), m
        125    1.076E+01                                 F               0         Y-component position of node 42 (blade 2, node 13), m
        126    2.079E+02                                 F               0         Z-component position of node 42 (blade 2, node 13), m
        127    4.317E+01                                 F               0         X-component position of node 43 (blade 2, node 14), m
        128    1.188E+01                                 F               0         Y-component position of node 43 (blade 2, node 14), m
        129    2.114E+02                                 F               0         Z-component position of node 43 (blade 2, node 14), m
        130    4.416E+01                                 F               0         X-component position of node 44 (blade 2, node 15), m
        131    1.301E+01                                 F               0         Y-component position of node 44 (blade 2, node 15), m
        132    2.150E+02                                 F               0         Z-component position of node 44 (blade 2, node 15), m
        133    4.515E+01                                 F               0         X-component position of node 45 (blade 2, node 16), m
        134    1.413E+01                                 F               0         Y-component position of node 45 (blade 2, node 16), m
        135    2.186E+02                                 F               0         Z-component position of node 45 (blade 2, node 16), m
        136    4.614E+01                                 F               0         X-component position of node 46 (blade 2, node 17), m
        137    1.525E+01                                 F               0         Y-component position of node 46 (blade 2, node 17), m
        138    2.221E+02                                 F               0         Z-component position of node 46 (blade 2, node 17), m
        139    4.713E+01                                 F               0         X-component position of node 47 (blade 2, node 18), m
        140    1.638E+01                                 F               0         Y-component position of node 47 (blade 2, node 18), m
        141    2.257E+02                                 F               0         Z-component position of node 47 (blade 2, node 18), m
        142    4.813E+01                                 F               0         X-component position of node 48 (blade 2, node 19), m
        143    1.750E+01                                 F               0         Y-component position of node 48 (blade 2, node 19), m
        144    2.293E+02                                 F               0         Z-component position of node 48 (blade 2, node 19), m
        145    4.912E+01                                 F               0         X-component position of node 49 (blade 2, node 20), m
        146    1.863E+01                                 F               0         Y-component position of node 49 (blade 2, node 20), m
        147    2.328E+02                                 F               0         Z-component position of node 49 (blade 2, node 20), m
        148    5.011E+01                                 F               0         X-component position of node 50 (blade 2, node 21), m
        149    1.975E+01                                 F               0         Y-component position of node 50 (blade 2, node 21), m
        150    2.364E+02                                 F               0         Z-component position of node 50 (blade 2, node 21), m
        151    5.110E+01                                 F               0         X-component position of node 51 (blade 2, node 22), m
        152    2.087E+01                                 F               0         Y-component position of node 51 (blade 2, node 22), m
        153    2.400E+02                                 F               0         Z-component position of node 51 (blade 2, node 22), m
        154    5.209E+01                                 F               0         X-component position of node 52 (blade 2, node 23), m
        155    2.200E+01                                 F               0         Y-component position of node 52 (blade 2, node 23), m
        156    2.435E+02                                 F               0         Z-component position of node 52 (blade 2, node 23), m
        157    5.309E+01                                 F               0         X-component position of node 53 (blade 2, node 24), m
        158    2.312E+01                                 F               0         Y-component position of node 53 (blade 2, node 24), m
        159    2.471E+02                                 F               0         Z-component position of node 53 (blade 2, node 24), m
        160    5.408E+01                                 F               0         X-component position of node 54 (blade 2, node 25), m
        161    2.424E+01                                 F               0         Y-component position of node 54 (blade 2, node 25), m
        162    2.507E+02                                 F               0         Z-component position of node 54 (blade 2, node 25), m
        163    5.507E+01                                 F               0         X-component position of node 55 (blade 2, node 26), m
        164    2.537E+01                                 F               0         Y-component position of node 55 (blade 2, node 26), m
        165    2.542E+02                                 F               0         Z-component position of node 55 (blade 2, node 26), m
        166    5.606E+01                                 F               0         X-component position of node 56 (blade 2, node 27), m
        167    2.649E+01                                 F               0         Y-component position of node 56 (blade 2, node 27), m
        168    2.578E+02                                 F               0         Z-component position of node 56 (blade 2, node 27), m
        169    5.690E+01                                 F               0         X-component position of node 57 (blade 2, node 28), m
        170    2.744E+01                                 F               0         Y-component position of node 57 (blade 2, node 28), m
        171    2.608E+02                                 F               0         Z-component position of node 57 (blade 2, node 28), m
        172    2.551E+01                                 F               0         X-component position of node 58 (blade 3, node 1), m
        173   -1.314E+01                                 F               0         Y-component position of node 58 (blade 3, node 1), m
        174    1.479E+02                                 F               0         Z-component position of node 58 (blade 3, node 1), m
        175    2.543E+01                                 F               0         X-component position of node 59 (blade 3, node 2), m
        176   -1.444E+01                                 F               0         Y-component position of node 59 (blade 3, node 2), m
        177    1.476E+02                                 F               0         Z-component position of node 59 (blade 3, node 2), m
        178    2.436E+01                                 F               0         X-component position of node 60 (blade 3, node 3), m
        179   -3.212E+01                                 F               0         Y-component position of node 60 (blade 3, node 3), m
        180    1.437E+02                                 F               0         Z-component position of node 60 (blade 3, node 3), m
        181    2.414E+01                                 F               0         X-component position of node 61 (blade 3, node 4), m
        182   -3.589E+01                                 F               0         Y-component position of node 61 (blade 3, node 4), m
        183    1.428E+02                                 F               0         Z-component position of node 61 (blade 3, node 4), m
        184    2.391E+01                                 F               0         X-component position of node 62 (blade 3, node 5), m
        185   -3.966E+01                                 F               0         Y-component position of node 62 (blade 3, node 5), m
        186    1.420E+02                                 F               0         Z-component position of node 62 (blade 3, node 5), m
        187    2.368E+01                                 F               0         X-component position of node 63 (blade 3, node 6), m
        188   -4.342E+01                                 F               0         Y-component position of node 63 (blade 3, node 6), m
        189    1.411E+02                                 F               0         Z-component position of node 63 (blade 3, node 6), m
        190    2.345E+01                                 F               0         X-component position of node 64 (blade 3, node 7), m
        191   -4.719E+01                                 F               0         Y-component position of node 64 (blade 3, node 7), m
        192    1.403E+02                                 F               0         Z-component position of node 64 (blade 3, node 7), m
        193    2.323E+01                                 F               0         X-component position of node 65 (blade 3, node 8), m
        194   -5.096E+01                                 F               0         Y-component position of node 65 (blade 3, node 8), m
        195    1.394E+02                                 F               0         Z-component position of node 65 (blade 3, node 8), m
        196    2.300E+01                                 F               0         X-component position of node 66 (blade 3, node 9), m
        197   -5.472E+01                                 F               0         Y-component position of node 66 (blade 3, node 9), m
        198    1.386E+02                                 F               0         Z-component position of node 66 (blade 3, node 9), m
        199    2.277E+01                                 F               0         X-component position of node 67 (blade 3, node 10), m
        200   -5.849E+01                                 F               0         Y-component position of node 67 (blade 3, node 10), m
        201    1.377E+02                                 F               0         Z-component position of node 67 (blade 3, node 10), m
        202    2.254E+01                                 F               0         X-component position of node 68 (blade 3, node 11), m
        203   -6.226E+01                                 F               0         Y-component position of node 68 (blade 3, node 11), m
        204    1.369E+02                                 F               0         Z-component position of node 68 (blade 3, node 11), m
        205    2.232E+01                                 F               0         X-component position of node 69 (blade 3, node 12), m
        206   -6.602E+01                                 F               0         Y-component position of node 69 (blade 3, node 12), m
        207    1.360E+02                                 F               0         Z-component position of node 69 (blade 3, node 12), m
        208    2.209E+01                                 F               0         X-component position of node 70 (blade 3, node 13), m
        209   -6.979E+01                                 F               0         Y-component position of node 70 (blade 3, node 13), m
        210    1.352E+02                                 F               0         Z-component position of node 70 (blade 3, node 13), m
        211    2.186E+01                                 F               0         X-component position of node 71 (blade 3, node 14), m