
Linearized model: Predictions were generated on 06-Feb-2024 at 16:18:08 using OpenFAST, compiled as a 64-bit application using single precision at commit v3.5.1
 linked with  NWTC Subroutine Library; ElastoDyn; InflowWind; AeroDyn; ServoDyn; HydroDyn; MAP++ (<1.20.10>, <Oct-20-2023>)

Description from the FAST input file: CCT-9 Campign 4 model. Input files to be run with OpenFAST 3.5.0. GitHub branch from Lu Wang (https://github.com/luwang00/openfast/tree/dev) compiled on March 7, 2023.

Simulation information:
   Simulation time:                  1002.7500 s
   Rotor Speed:                         1.0421 rad/s
   Azimuth:                             4.3660 rad
   Wind Speed:                         12.0000 m/s
   Number of continuous states:         0
   Number of discrete states:           0
   Number of constraint states:         0
   Number of inputs:                 1746
   Number of outputs:                   4
   Jacobians included in this file?    No

Order of inputs:
     Column   Operating Point                     Rotating Frame? Derivative Order Description
   ---------- ---------------                     --------------- ---------------- -----------
          1    1.513E+01                                 F               0         Tower X translation displacement, node 1, m
          2   -1.424E+00                                 F               0         Tower Y translation displacement, node 1, m
          3   -4.965E-01                                 F               0         Tower Z translation displacement, node 1, m
          4    1.704E+01                                 F               0         Tower X translation displacement, node 2, m
          5   -2.005E+00                                 F               0         Tower Y translation displacement, node 2, m
          6   -6.592E-01                                 F               0         Tower Z translation displacement, node 2, m
          7    1.899E+01                                 F               0         Tower X translation displacement, node 3, m
          8   -2.592E+00                                 F               0         Tower Y translation displacement, node 3, m
          9   -8.276E-01                                 F               0         Tower Z translation displacement, node 3, m
         10    2.096E+01                                 F               0         Tower X translation displacement, node 4, m
         11   -3.184E+00                                 F               0         Tower Y translation displacement, node 4, m
         12   -1.000E+00                                 F               0         Tower Z translation displacement, node 4, m
         13    2.296E+01                                 F               0         Tower X translation displacement, node 5, m
         14   -3.779E+00                                 F               0         Tower Y translation displacement, node 5, m
         15   -1.177E+00                                 F               0         Tower Z translation displacement, node 5, m
         16    2.497E+01                                 F               0         Tower X translation displacement, node 6, m
         17   -4.377E+00                                 F               0         Tower Y translation displacement, node 6, m
         18   -1.357E+00                                 F               0         Tower Z translation displacement, node 6, m
         19    2.699E+01                                 F               0         Tower X translation displacement, node 7, m
         20   -4.977E+00                                 F               0         Tower Y translation displacement, node 7, m
         21   -1.539E+00                                 F               0         Tower Z translation displacement, node 7, m
         22    2.903E+01                                 F               0         Tower X translation displacement, node 8, m
         23   -5.580E+00                                 F               0         Tower Y translation displacement, node 8, m
         24   -1.723E+00                                 F               0         Tower Z translation displacement, node 8, m
         25    3.108E+01                                 F               0         Tower X translation displacement, node 9, m
         26   -6.184E+00                                 F               0         Tower Y translation displacement, node 9, m
         27   -1.908E+00                                 F               0         Tower Z translation displacement, node 9, m
         28    3.313E+01                                 F               0         Tower X translation displacement, node 10, m
         29   -6.790E+00                                 F               0         Tower Y translation displacement, node 10, m
         30   -2.095E+00                                 F               0         Tower Z translation displacement, node 10, m
         31    3.518E+01                                 F               0         Tower X translation displacement, node 11, m
         32   -7.396E+00                                 F               0         Tower Y translation displacement, node 11, m
         33   -2.282E+00                                 F               0         Tower Z translation displacement, node 11, m
         34    9.881E-01, -3.532E-03, -1.540E-01         F               0         Tower X orientation angle, node 1, rad
         35    1.071E-02,  9.989E-01,  4.579E-02         F               0         Tower Y orientation angle, node 1, rad
         36    1.537E-01, -4.689E-02,  9.870E-01         F               0         Tower Z orientation angle, node 1, rad
         37    9.877E-01, -3.408E-03, -1.566E-01         F               0         Tower X orientation angle, node 2, rad
         38    1.077E-02,  9.989E-01,  4.619E-02         F               0         Tower Y orientation angle, node 2, rad
         39    1.563E-01, -4.730E-02,  9.866E-01         F               0         Tower Z orientation angle, node 2, rad
         40    9.873E-01, -3.298E-03, -1.589E-01         F               0         Tower X orientation angle, node 3, rad
         41    1.083E-02,  9.989E-01,  4.655E-02         F               0         Tower Y orientation angle, node 3, rad
         42    1.585E-01, -4.768E-02,  9.862E-01         F               0         Tower Z orientation angle, node 3, rad
         43    9.870E-01, -3.203E-03, -1.608E-01         F               0         Tower X orientation angle, node 4, rad
         44    1.088E-02,  9.988E-01,  4.687E-02         F               0         Tower Y orientation angle, node 4, rad
         45    1.605E-01, -4.800E-02,  9.859E-01         F               0         Tower Z orientation angle, node 4, rad
         46    9.867E-01, -3.123E-03, -1.625E-01         F               0         Tower X orientation angle, node 5, rad
         47    1.092E-02,  9.988E-01,  4.714E-02         F               0         Tower Y orientation angle, node 5, rad
         48    1.621E-01, -4.828E-02,  9.856E-01         F               0         Tower Z orientation angle, node 5, rad
         49    9.865E-01, -3.058E-03, -1.638E-01         F               0         Tower X orientation angle, node 6, rad
         50    1.096E-02,  9.988E-01,  4.736E-02         F               0         Tower Y orientation angle, node 6, rad
         51    1.635E-01, -4.852E-02,  9.854E-01         F               0         Tower Z orientation angle, node 6, rad
         52    9.863E-01, -3.008E-03, -1.648E-01         F               0         Tower X orientation angle, node 7, rad
         53    1.099E-02,  9.988E-01,  4.754E-02         F               0         Tower Y orientation angle, node 7, rad
         54    1.645E-01, -4.870E-02,  9.852E-01         F               0         Tower Z orientation angle, node 7, rad
         55    9.862E-01, -2.970E-03, -1.656E-01         F               0         Tower X orientation angle, node 8, rad
         56    1.101E-02,  9.988E-01,  4.768E-02         F               0         Tower Y orientation angle, node 8, rad
         57    1.652E-01, -4.885E-02,  9.850E-01         F               0         Tower Z orientation angle, node 8, rad
         58    9.861E-01, -2.943E-03, -1.661E-01         F               0         Tower X orientation angle, node 9, rad
         59    1.103E-02,  9.988E-01,  4.779E-02         F               0         Tower Y orientation angle, node 9, rad
         60    1.658E-01, -4.896E-02,  9.849E-01         F               0         Tower Z orientation angle, node 9, rad
         61    9.860E-01, -2.926E-03, -1.665E-01         F               0         Tower X orientation angle, node 10, rad
         62    1.104E-02,  9.988E-01,  4.785E-02         F               0         Tower Y orientation angle, node 10, rad
         63    1.661E-01, -4.902E-02,  9.849E-01         F               0         Tower Z orientation angle, node 10, rad
         64    9.860E-01, -2.917E-03, -1.666E-01         F               0         Tower X orientation angle, node 11, rad
         65    1.105E-02,  9.988E-01,  4.789E-02         F               0         Tower Y orientation angle, node 11, rad
         66    1.663E-01, -4.906E-02,  9.849E-01         F               0         Tower Z orientation angle, node 11, rad
         67   -2.524E-04                                 F               0         Tower X translation velocity, node 1, m/s
         68   -7.593E-04                                 F               0         Tower Y translation velocity, node 1, m/s
         69    1.649E-04                                 F               0         Tower Z translation velocity, node 1, m/s
         70   -3.416E-04                                 F               0         Tower X translation velocity, node 2, m/s
         71   -1.250E-03                                 F               0         Tower Y translation velocity, node 2, m/s
         72    1.555E-04                                 F               0         Tower Z translation velocity, node 2, m/s
         73   -3.657E-04                                 F               0         Tower X translation velocity, node 3, m/s
         74   -1.684E-03                                 F               0         Tower Y translation velocity, node 3, m/s
         75    1.385E-04                                 F               0         Tower Z translation velocity, node 3, m/s
         76   -3.438E-04                                 F               0         Tower X translation velocity, node 4, m/s
         77   -2.073E-03                                 F               0         Tower Y translation velocity, node 4, m/s
         78    1.161E-04                                 F               0         Tower Z translation velocity, node 4, m/s
         79   -2.870E-04                                 F               0         Tower X translation velocity, node 5, m/s
         80   -2.419E-03                                 F               0         Tower Y translation velocity, node 5, m/s
         81    8.985E-05                                 F               0         Tower Z translation velocity, node 5, m/s
         82   -2.056E-04                                 F               0         Tower X translation velocity, node 6, m/s
         83   -2.727E-03                                 F               0         Tower Y translation velocity, node 6, m/s
         84    6.125E-05                                 F               0         Tower Z translation velocity, node 6, m/s
         85   -1.091E-04                                 F               0         Tower X translation velocity, node 7, m/s
         86   -3.005E-03                                 F               0         Tower Y translation velocity, node 7, m/s
         87    3.149E-05                                 F               0         Tower Z translation velocity, node 7, m/s
         88   -2.712E-06                                 F               0         Tower X translation velocity, node 8, m/s
         89   -3.254E-03                                 F               0         Tower Y translation velocity, node 8, m/s
         90    1.346E-06                                 F               0         Tower Z translation velocity, node 8, m/s
         91    1.082E-04                                 F               0         Tower X translation velocity, node 9, m/s
         92   -3.481E-03                                 F               0         Tower Y translation velocity, node 9, m/s
         93   -2.856E-05                                 F               0         Tower Z translation velocity, node 9, m/s
         94    2.203E-04                                 F               0         Tower X translation velocity, node 10, m/s
         95   -3.691E-03                                 F               0         Tower Y translation velocity, node 10, m/s
         96   -5.791E-05                                 F               0         Tower Z translation velocity, node 10, m/s
         97    3.316E-04                                 F               0         Tower X translation velocity, node 11, m/s
         98   -3.891E-03                                 F               0         Tower Y translation velocity, node 11, m/s
         99   -8.665E-05                                 F               0         Tower Z translation velocity, node 11, m/s
        100    3.664E+01                                 F               0         Hub X translation displacement, node 1, m
        101   -7.749E+00                                 F               0         Hub Y translation displacement, node 1, m
        102   -6.007E-01                                 F               0         Hub Z translation displacement, node 1, m
        103    9.632E-01,  2.227E-03, -2.687E-01         F               0         Hub X orientation angle, node 1, rad
        104   -2.563E-01, -2.930E-01, -9.211E-01         F               0         Hub Y orientation angle, node 1, rad
        105   -8.076E-02,  9.561E-01, -2.816E-01         F               0         Hub Z orientation angle, node 1, rad
        106    1.004E+00                                 F               0         Hub X rotation velocity, node 1, rad/s
        107    2.330E-03                                 F               0         Hub Y rotation velocity, node 1, rad/s
        108   -2.800E-01                                 F               0         Hub Z rotation velocity, node 1, rad/s
        109    9.704E-01,  1.092E-02, -2.412E-01         F               0         Blade root 1 X orientation angle, node 1, rad
        110   -2.276E-01, -2.928E-01, -9.287E-01         F               0         Blade root 1 Y orientation angle, node 1, rad
        111   -8.076E-02,  9.561E-01, -2.816E-01         F               0         Blade root 1 Z orientation angle, node 1, rad
        112    9.611E-01, -2.668E-02, -2.750E-01         F               0         Blade root 2 X orientation angle, node 1, rad
        113    8.674E-02,  9.741E-01,  2.086E-01         F               0         Blade root 2 Y orientation angle, node 1, rad
        114    2.623E-01, -2.244E-01,  9.385E-01         F               0         Blade root 2 Z orientation angle, node 1, rad
        115    9.569E-01,  2.245E-02, -2.895E-01         F               0         Blade root 3 X orientation angle, node 1, rad
        116    2.266E-01, -6.812E-01,  6.962E-01         F               0         Blade root 3 Y orientation angle, node 1, rad
        117   -1.815E-01, -7.318E-01, -6.569E-01         F               0         Blade root 3 Z orientation angle, node 1, rad
        118    3.561E+01                                 F               0         Blade 1 X translation displacement, node 1, m
        119   -2.452E+00                                 F               0         Blade 1 Y translation displacement, node 1, m
        120   -7.671E+00                                 F               0         Blade 1 Z translation displacement, node 1, m
        121    3.536E+01                                 F               0         Blade 1 X translation displacement, node 2, m
        122   -1.176E+00                                 F               0         Blade 1 Y translation displacement, node 2, m
        123   -9.374E+00                                 F               0         Blade 1 Z translation displacement, node 2, m
        124    3.200E+01                                 F               0         Blade 1 X translation displacement, node 3, m
        125    1.618E+01                                 F               0         Blade 1 Y translation displacement, node 3, m
        126   -3.254E+01                                 F               0         Blade 1 Z translation displacement, node 3, m
        127    3.128E+01                                 F               0         Blade 1 X translation displacement, node 4, m
        128    1.988E+01                                 F               0         Blade 1 Y translation displacement, node 4, m
        129   -3.747E+01                                 F               0         Blade 1 Z translation displacement, node 4, m
        130    3.057E+01                                 F               0         Blade 1 X translation displacement, node 5, m
        131    2.358E+01                                 F               0         Blade 1 Y translation displacement, node 5, m
        132   -4.241E+01                                 F               0         Blade 1 Z translation displacement, node 5, m
        133    2.985E+01                                 F               0         Blade 1 X translation displacement, node 6, m
        134    2.727E+01                                 F               0         Blade 1 Y translation displacement, node 6, m
        135   -4.735E+01                                 F               0         Blade 1 Z translation displacement, node 6, m
        136    2.913E+01                                 F               0         Blade 1 X translation displacement, node 7, m
        137    3.097E+01                                 F               0         Blade 1 Y translation displacement, node 7, m
        138   -5.228E+01                                 F               0         Blade 1 Z translation displacement, node 7, m
        139    2.842E+01                                 F               0         Blade 1 X translation displacement, node 8, m
        140    3.467E+01                                 F               0         Blade 1 Y translation displacement, node 8, m
        141   -5.722E+01                                 F               0         Blade 1 Z translation displacement, node 8, m
        142    2.770E+01                                 F               0         Blade 1 X translation displacement, node 9, m
        143    3.837E+01                                 F               0         Blade 1 Y translation displacement, node 9, m
        144   -6.215E+01                                 F               0         Blade 1 Z translation displacement, node 9, m
        145    2.698E+01                                 F               0         Blade 1 X translation displacement, node 10, m
        146    4.207E+01                                 F               0         Blade 1 Y translation displacement, node 10, m
        147   -6.709E+01                                 F               0         Blade 1 Z translation displacement, node 10, m
        148    2.627E+01                                 F               0         Blade 1 X translation displacement, node 11, m
        149    4.576E+01                                 F               0         Blade 1 Y translation displacement, node 11, m
        150   -7.202E+01                                 F               0         Blade 1 Z translation displacement, node 11, m
        151    2.555E+01                                 F               0         Blade 1 X translation displacement, node 12, m
        152    4.946E+01                                 F               0         Blade 1 Y translation displacement, node 12, m
        153   -7.696E+01                                 F               0         Blade 1 Z translation displacement, node 12, m
        154    2.483E+01                                 F               0         Blade 1 X translation displacement, node 13, m
        155    5.316E+01                                 F               0         Blade 1 Y translation displacement, node 13, m
        156   -8.190E+01                                 F               0         Blade 1 Z translation displacement, node 13, m
        157    2.412E+01                                 F               0         Blade 1 X translation displacement, node 14, m
        158    5.686E+01                                 F               0         Blade 1 Y translation displacement, node 14, m
        159   -8.683E+01                                 F               0         Blade 1 Z translation displacement, node 14, m
        160    2.340E+01                                 F               0         Blade 1 X translation displacement, node 15, m
        161    6.056E+01                                 F               0         Blade 1 Y translation displacement, node 15, m
        162   -9.177E+01                                 F               0         Blade 1 Z translation displacement, node 15, m
        163    2.268E+01                                 F               0         Blade 1 X translation displacement, node 16, m
        164    6.425E+01                                 F               0         Blade 1 Y translation displacement, node 16, m
        165   -9.670E+01                                 F               0         Blade 1 Z translation displacement, node 16, m
        166    2.197E+01                                 F               0         Blade 1 X translation displacement, node 17, m
        167    6.795E+01                                 F               0         Blade 1 Y translation displacement, node 17, m
        168   -1.016E+02                                 F               0         Blade 1 Z translation displacement, node 17, m
        169    2.125E+01                                 F               0         Blade 1 X translation displacement, node 18, m
        170    7.165E+01                                 F               0         Blade 1 Y translation displacement, node 18, m
        171   -1.066E+02                                 F               0         Blade 1 Z translation displacement, node 18, m
        172    2.053E+01                                 F               0         Blade 1 X translation displacement, node 19, m
        173    7.535E+01                                 F               0         Blade 1 Y translation displacement, node 19, m
        174   -1.115E+02                                 F               0         Blade 1 Z translation displacement, node 19, m
        175    1.982E+01                                 F               0         Blade 1 X translation displacement, node 20, m
        176    7.905E+01                                 F               0         Blade 1 Y translation displacement, node 20, m
        177   -1.164E+02                                 F               0         Blade 1 Z translation displacement, node 20, m
        178    1.910E+01                                 F               0         Blade 1 X translation displacement, node 21, m
        179    8.274E+01                                 F               0         Blade 1 Y translation displacement, node 21, m
        180   -1.214E+02                                 F               0         Blade 1 Z translation displacement, node 21, m
        181    1.838E+01                                 F               0         Blade 1 X translation displacement, node 22, m
        182    8.644E+01                                 F               0         Blade 1 Y translation displacement, node 22, m
        183   -1.263E+02                                 F               0         Blade 1 Z translation displacement, node 22, m
        184    1.767E+01                                 F               0         Blade 1 X translation displacement, node 23, m
        185    9.014E+01                                 F               0         Blade 1 Y translation displacement, node 23, m
        186   -1.313E+02                                 F               0         Blade 1 Z translation displacement, node 23, m
        187    1.695E+01                                 F               0         Blade 1 X translation displacement, node 24, m
        188    9.384E+01                                 F               0         Blade 1 Y translation displacement, node 24, m
        189   -1.362E+02                                 F               0         Blade 1 Z translation displacement, node 24, m
        190    1.623E+01                                 F               0         Blade 1 X translation displacement, node 25, m
        191    9.754E+01                                 F               0         Blade 1 Y translation displacement, node 25, m
        192   -1.411E+02                                 F               0         Blade 1 Z translation displacement, node 25, m
        193    1.552E+01                                 F               0         Blade 1 X translation displacement, node 26, m
        194    1.012E+02                                 F               0         Blade 1 Y translation displacement, node 26, m
        195   -1.461E+02                                 F               0         Blade 1 Z translation displacement, node 26, m
        196    1.480E+01                                 F               0         Blade 1 X translation displacement, node 27, m
        197    1.049E+02                                 F               0         Blade 1 Y translation displacement, node 27, m
        198   -1.510E+02                                 F               0         Blade 1 Z translation displacement, node 27, m
        199    1.419E+01                                 F               0         Blade 1 X translation displacement, node 28, m
        200    1.081E+02                                 F               0         Blade 1 Y translation displacement, node 28, m
        201   -1.552E+02                                 F               0         Blade 1 Z translation displacement, node 28, m
        202    9.674E-01,  1.432E-01,  2.088E-01         F               0         Blade 1 X orientation angle, node 1, rad
        203    2.400E-01, -2.556E-01, -9.365E-01         F               0         Blade 1 Y orientation angle, node 1, rad
        204   -8.076E-02,  9.561E-01, -2.816E-01         F               0         Blade 1 Z orientation angle, node 1, rad
        205    9.674E-01,  1.432E-01,  2.088E-01         F               0         Blade 1 X orientation angle, node 2, rad
        206    2.400E-01, -2.556E-01, -9.365E-01         F               0         Blade 1 Y orientation angle, node 2, rad
        207   -8.076E-02,  9.561E-01, -2.816E-01         F               0         Blade 1 Z orientation angle, node 2, rad
        208    9.967E-01,  7.856E-02, -1.910E-02         F               0         Blade 1 X orientation angle, node 3, rad
        209    3.866E-03, -2.822E-01, -9.593E-01         F               0         Blade 1 Y orientation angle, node 3, rad
        210   -8.076E-02,  9.561E-01, -2.816E-01         F               0         Blade 1 Z orientation angle, node 3, rad
        211    9.960E-01,  6.658E-02, -5.959E-02         F               0         Blade 1 X orientation angle, node 4, rad
        212   -3.822E-02, -2.853E-01, -9.577E-01         F               0         Blade 1 Y orientation angle, node 4, rad
        213   -8.076E-02,  9.561E-01, -2.816E-01         F               0         Blade 1 Z orientation angle, node 4, rad
        214    9.942E-01,  5.708E-02, -9.131E-02         F               0         Blade 1 X orientation angle, node 5, rad
        215   -7.123E-02, -2.873E-01, -9.552E-01         F               0         Blade 1 Y orientation angle, node 5, rad
        216   -8.076E-02,  9.561E-01, -2.816E-01         F               0         Blade 1 Z orientation angle, node 5, rad
        217    9.919E-01,  4.944E-02, -1.166E-01         F               0         Blade 1 X orientation angle, node 6, rad
        218   -9.757E-02, -2.888E-01, -9.524E-01         F               0         Blade 1 Y orientation angle, node 6, rad
        219   -8.076E-02,  9.561E-01, -2.816E-01         F               0         Blade 1 Z orientation angle, node 6, rad
        220    9.896E-01,  4.313E-02, -1.374E-01         F               0         Blade 1 X orientation angle, node 7, rad
        221   -1.192E-01, -2.898E-01, -9.496E-01         F               0         Blade 1 Y orientation angle, node 7, rad
        222   -8.076E-02,  9.561E-01, -2.816E-01         F               0         Blade 1 Z orientation angle, node 7, rad
        223    9.873E-01,  3.786E-02, -1.546E-01         F               0         Blade 1 X orientation angle, node 8, rad
        224   -1.371E-01, -2.905E-01, -9.470E-01         F               0         Blade 1 Y orientation angle, node 8, rad
        225   -8.076E-02,  9.561E-01, -2.816E-01         F               0         Blade 1 Z orientation angle, node 8, rad
        226    9.850E-01,  3.340E-02, -1.691E-01         F               0         Blade 1 X orientation angle, node 9, rad
        227   -1.523E-01, -2.910E-01, -9.445E-01         F               0         Blade 1 Y orientation angle, node 9, rad