
Linearized model: Predictions were generated on 06-Feb-2024 at 16:18:08 using OpenFAST, compiled as a 64-bit application using single precision at commit v3.5.1
 linked with  NWTC Subroutine Library; ElastoDyn; InflowWind; AeroDyn; ServoDyn; HydroDyn; MAP++ (<1.20.10>, <Oct-20-2023>)

Description from the FAST input file: CCT-9 Campign 4 model. Input files to be run with OpenFAST 3.5.0. GitHub branch from Lu Wang (https://github.com/luwang00/openfast/tree/dev) compiled on March 7, 2023.

Simulation information:
   Simulation time:                  1003.5000 s
   Rotor Speed:                         1.0420 rad/s
   Azimuth:                             5.1475 rad
   Wind Speed:                         12.0000 m/s
   Number of continuous states:        18
   Number of discrete states:           0
   Number of constraint states:         0
   Number of inputs:                 1890
   Number of outputs:                  19
   Jacobians included in this file?    No

Order of continuous states:
   Row/Column Operating Point                     Rotating Frame? Derivative Order Description
   ---------- ---------------                     --------------- ---------------- -----------
          1    1.231E+01                                 F               2         Platform horizontal surge translation DOF (internal DOF index = DOF_Sg), m
          2   -2.578E-01                                 F               2         Platform vertical heave translation DOF (internal DOF index = DOF_Hv), m
          3    4.697E-02                                 F               2         Platform roll tilt rotation DOF (internal DOF index = DOF_R), rad
          4    1.559E-01                                 F               2         Platform pitch tilt rotation DOF (internal DOF index = DOF_P), rad
          5    1.080E+00                                 F               2         1st tower fore-aft bending mode DOF (internal DOF index = DOF_TFA1), m
          6    1.743E-01                                 F               2         1st tower side-to-side bending mode DOF (internal DOF index = DOF_TSS1), m
          7    1.613E-03                                 F               2         2nd tower fore-aft bending mode DOF (internal DOF index = DOF_TFA2), m
          8    7.993E-05                                 F               2         2nd tower side-to-side bending mode DOF (internal DOF index = DOF_TSS2), m
          9    3.577E+00                                 F               2         Variable speed generator DOF (internal DOF index = DOF_GeAz), rad
         10    5.083E-05                                 F               2         First time derivative of Platform horizontal surge translation DOF (internal DOF index = DOF_Sg), m/s
         11    1.092E-03                                 F               2         First time derivative of Platform vertical heave translation DOF (internal DOF index = DOF_Hv), m/s
         12    2.628E-05                                 F               2         First time derivative of Platform roll tilt rotation DOF (internal DOF index = DOF_R), rad/s
         13   -1.280E-06                                 F               2         First time derivative of Platform pitch tilt rotation DOF (internal DOF index = DOF_P), rad/s
         14   -1.420E-03                                 F               2         First time derivative of 1st tower fore-aft bending mode DOF (internal DOF index = DOF_TFA1), m/s
         15   -1.168E-03                                 F               2         First time derivative of 1st tower side-to-side bending mode DOF (internal DOF index = DOF_TSS1), m/s
         16   -1.382E-05                                 F               2         First time derivative of 2nd tower fore-aft bending mode DOF (internal DOF index = DOF_TFA2), m/s
         17    1.971E-06                                 F               2         First time derivative of 2nd tower side-to-side bending mode DOF (internal DOF index = DOF_TSS2), m/s
         18    1.042E+00                                 F               2         First time derivative of Variable speed generator DOF (internal DOF index = DOF_GeAz), rad/s

Order of continuous state derivatives:
   Row/Column Operating Point                     Rotating Frame? Derivative Order Description
   ---------- ---------------                     --------------- ---------------- -----------
          1    5.083E-05                                 F               2         First time derivative of Platform horizontal surge translation DOF (internal DOF index = DOF_Sg), m/s
          2    1.092E-03                                 F               2         First time derivative of Platform vertical heave translation DOF (internal DOF index = DOF_Hv), m/s
          3    2.628E-05                                 F               2         First time derivative of Platform roll tilt rotation DOF (internal DOF index = DOF_R), rad/s
          4   -1.280E-06                                 F               2         First time derivative of Platform pitch tilt rotation DOF (internal DOF index = DOF_P), rad/s
          5   -1.420E-03                                 F               2         First time derivative of 1st tower fore-aft bending mode DOF (internal DOF index = DOF_TFA1), m/s
          6   -1.168E-03                                 F               2         First time derivative of 1st tower side-to-side bending mode DOF (internal DOF index = DOF_TSS1), m/s
          7   -1.382E-05                                 F               2         First time derivative of 2nd tower fore-aft bending mode DOF (internal DOF index = DOF_TFA2), m/s
          8    1.971E-06                                 F               2         First time derivative of 2nd tower side-to-side bending mode DOF (internal DOF index = DOF_TSS2), m/s
          9    1.042E+00                                 F               2         First time derivative of Variable speed generator DOF (internal DOF index = DOF_GeAz), rad/s
         10    2.431E-05                                 F               2         First time derivative of First time derivative of Platform horizontal surge translation DOF (internal DOF index = DOF_Sg), m/s/s
         11    1.272E-03                                 F               2         First time derivative of First time derivative of Platform vertical heave translation DOF (internal DOF index = DOF_Hv), m/s/s
         12   -3.394E-05                                 F               2         First time derivative of First time derivative of Platform roll tilt rotation DOF (internal DOF index = DOF_R), rad/s/s
         13    2.829E-06                                 F               2         First time derivative of First time derivative of Platform pitch tilt rotation DOF (internal DOF index = DOF_P), rad/s/s
         14   -9.790E-04                                 F               2         First time derivative of First time derivative of 1st tower fore-aft bending mode DOF (internal DOF index = DOF_TFA1), m/s/s
         15    9.813E-04                                 F               2         First time derivative of First time derivative of 1st tower side-to-side bending mode DOF (internal DOF index = DOF_TSS1), m/s/s
         16   -2.084E-05                                 F               2         First time derivative of First time derivative of 2nd tower fore-aft bending mode DOF (internal DOF index = DOF_TFA2), m/s/s
         17   -7.333E-06                                 F               2         First time derivative of First time derivative of 2nd tower side-to-side bending mode DOF (internal DOF index = DOF_TSS2), m/s/s
         18   -1.131E-04                                 F               2         First time derivative of First time derivative of Variable speed generator DOF (internal DOF index = DOF_GeAz), rad/s/s

Order of inputs:
     Column   Operating Point                     Rotating Frame? Derivative Order Description
   ---------- ---------------                     --------------- ---------------- -----------
          1    7.916E+01                                 F               0         Blade 1 X force, node 1, N
          2    2.199E+01                                 F               0         Blade 1 Y force, node 1, N
          3   -6.507E+01                                 F               0         Blade 1 Z force, node 1, N
          4    3.763E+02                                 F               0         Blade 1 X force, node 2, N
          5    4.687E+01                                 F               0         Blade 1 Y force, node 2, N
          6   -1.956E+02                                 F               0         Blade 1 Z force, node 2, N
          7    5.446E+02                                 F               0         Blade 1 X force, node 3, N
          8    1.054E+01                                 F               0         Blade 1 Y force, node 3, N
          9   -1.702E+02                                 F               0         Blade 1 Z force, node 3, N
         10    7.532E+02                                 F               0         Blade 1 X force, node 4, N
         11   -2.085E+01                                 F               0         Blade 1 Y force, node 4, N
         12   -1.656E+02                                 F               0         Blade 1 Z force, node 4, N
         13    9.619E+02                                 F               0         Blade 1 X force, node 5, N
         14   -5.223E+01                                 F               0         Blade 1 Y force, node 5, N
         15   -1.610E+02                                 F               0         Blade 1 Z force, node 5, N
         16    1.171E+03                                 F               0         Blade 1 X force, node 6, N
         17   -8.361E+01                                 F               0         Blade 1 Y force, node 6, N
         18   -1.563E+02                                 F               0         Blade 1 Z force, node 6, N
         19    1.379E+03                                 F               0         Blade 1 X force, node 7, N
         20   -1.150E+02                                 F               0         Blade 1 Y force, node 7, N
         21   -1.517E+02                                 F               0         Blade 1 Z force, node 7, N
         22    1.588E+03                                 F               0         Blade 1 X force, node 8, N
         23   -1.464E+02                                 F               0         Blade 1 Y force, node 8, N
         24   -1.471E+02                                 F               0         Blade 1 Z force, node 8, N
         25    1.797E+03                                 F               0         Blade 1 X force, node 9, N
         26   -1.778E+02                                 F               0         Blade 1 Y force, node 9, N
         27   -1.425E+02                                 F               0         Blade 1 Z force, node 9, N
         28    2.005E+03                                 F               0         Blade 1 X force, node 10, N
         29   -2.092E+02                                 F               0         Blade 1 Y force, node 10, N
         30   -1.379E+02                                 F               0         Blade 1 Z force, node 10, N
         31    2.214E+03                                 F               0         Blade 1 X force, node 11, N
         32   -2.405E+02                                 F               0         Blade 1 Y force, node 11, N
         33   -1.332E+02                                 F               0         Blade 1 Z force, node 11, N
         34    2.423E+03                                 F               0         Blade 1 X force, node 12, N
         35   -2.719E+02                                 F               0         Blade 1 Y force, node 12, N
         36   -1.286E+02                                 F               0         Blade 1 Z force, node 12, N
         37    2.631E+03                                 F               0         Blade 1 X force, node 13, N
         38   -3.033E+02                                 F               0         Blade 1 Y force, node 13, N
         39   -1.240E+02                                 F               0         Blade 1 Z force, node 13, N
         40    2.840E+03                                 F               0         Blade 1 X force, node 14, N
         41   -3.347E+02                                 F               0         Blade 1 Y force, node 14, N
         42   -1.194E+02                                 F               0         Blade 1 Z force, node 14, N
         43    3.049E+03                                 F               0         Blade 1 X force, node 15, N
         44   -3.661E+02                                 F               0         Blade 1 Y force, node 15, N
         45   -1.148E+02                                 F               0         Blade 1 Z force, node 15, N
         46    3.257E+03                                 F               0         Blade 1 X force, node 16, N
         47   -3.975E+02                                 F               0         Blade 1 Y force, node 16, N
         48   -1.102E+02                                 F               0         Blade 1 Z force, node 16, N
         49    4.018E+03                                 F               0         Blade 1 X force, node 17, N
         50   -4.951E+02                                 F               0         Blade 1 Y force, node 17, N
         51   -1.264E+02                                 F               0         Blade 1 Z force, node 17, N
         52    3.064E+03                                 F               0         Blade 1 X force, node 18, N
         53   -3.637E+02                                 F               0         Blade 1 Y force, node 18, N
         54   -1.237E+02                                 F               0         Blade 1 Z force, node 18, N
         55    3.751E+03                                 F               0         Blade 1 X force, node 19, N
         56   -4.231E+02                                 F               0         Blade 1 Y force, node 19, N
         57   -1.950E+02                                 F               0         Blade 1 Z force, node 19, N
         58    3.191E+03                                 F               0         Blade 1 X force, node 20, N
         59   -3.425E+02                                 F               0         Blade 1 Y force, node 20, N
         60   -2.003E+02                                 F               0         Blade 1 Z force, node 20, N
         61    4.701E+03                                 F               0         Blade 1 X force, node 21, N
         62   -4.760E+02                                 F               0         Blade 1 Y force, node 21, N
         63   -3.514E+02                                 F               0         Blade 1 Z force, node 21, N
         64    4.139E+03                                 F               0         Blade 1 X force, node 22, N
         65   -3.953E+02                                 F               0         Blade 1 Y force, node 22, N
         66   -3.563E+02                                 F               0         Blade 1 Z force, node 22, N
         67    4.241E+03                                 F               0         Blade 1 X force, node 23, N
         68   -3.837E+02                                 F               0         Blade 1 Y force, node 23, N
         69   -4.072E+02                                 F               0         Blade 1 Z force, node 23, N
         70    4.420E+03                                 F               0         Blade 1 X force, node 24, N
         71   -3.789E+02                                 F               0         Blade 1 Y force, node 24, N
         72   -4.657E+02                                 F               0         Blade 1 Z force, node 24, N
         73    4.520E+03                                 F               0         Blade 1 X force, node 25, N
         74   -3.674E+02                                 F               0         Blade 1 Y force, node 25, N
         75   -5.161E+02                                 F               0         Blade 1 Z force, node 25, N
         76    4.646E+03                                 F               0         Blade 1 X force, node 26, N
         77   -3.581E+02                                 F               0         Blade 1 Y force, node 26, N
         78   -5.689E+02                                 F               0         Blade 1 Z force, node 26, N
         79    5.558E+03                                 F               0         Blade 1 X force, node 27, N
         80   -4.049E+02                                 F               0         Blade 1 Y force, node 27, N
         81   -7.266E+02                                 F               0         Blade 1 Z force, node 27, N
         82    4.114E+03                                 F               0         Blade 1 X force, node 28, N
         83   -2.838E+02                                 F               0         Blade 1 Y force, node 28, N
         84   -5.693E+02                                 F               0         Blade 1 Z force, node 28, N
         85    5.026E+03                                 F               0         Blade 1 X force, node 29, N
         86   -3.309E+02                                 F               0         Blade 1 Y force, node 29, N
         87   -7.267E+02                                 F               0         Blade 1 Z force, node 29, N
         88    4.271E+03                                 F               0         Blade 1 X force, node 30, N
         89   -2.685E+02                                 F               0         Blade 1 Y force, node 30, N
         90   -6.426E+02                                 F               0         Blade 1 Z force, node 30, N
         91    6.163E+03                                 F               0         Blade 1 X force, node 31, N
         92   -3.668E+02                                 F               0         Blade 1 Y force, node 31, N
         93   -9.679E+02                                 F               0         Blade 1 Z force, node 31, N
         94    5.408E+03                                 F               0         Blade 1 X force, node 32, N
         95   -3.045E+02                                 F               0         Blade 1 Y force, node 32, N
         96   -8.835E+02                                 F               0         Blade 1 Z force, node 32, N
         97    5.534E+03                                 F               0         Blade 1 X force, node 33, N
         98   -2.957E+02                                 F               0         Blade 1 Y force, node 33, N
         99   -9.354E+02                                 F               0         Blade 1 Z force, node 33, N
        100    5.662E+03                                 F               0         Blade 1 X force, node 34, N
        101   -2.870E+02                                 F               0         Blade 1 Y force, node 34, N
        102   -9.876E+02                                 F               0         Blade 1 Z force, node 34, N
        103    5.790E+03                                 F               0         Blade 1 X force, node 35, N
        104   -2.784E+02                                 F               0         Blade 1 Y force, node 35, N
        105   -1.040E+03                                 F               0         Blade 1 Z force, node 35, N
        106    5.916E+03                                 F               0         Blade 1 X force, node 36, N
        107   -2.698E+02                                 F               0         Blade 1 Y force, node 36, N
        108   -1.091E+03                                 F               0         Blade 1 Z force, node 36, N
        109    7.070E+03                                 F               0         Blade 1 X force, node 37, N
        110   -3.046E+02                                 F               0         Blade 1 Y force, node 37, N
        111   -1.339E+03                                 F               0         Blade 1 Z force, node 37, N
        112    5.145E+03                                 F               0         Blade 1 X force, node 38, N
        113   -2.095E+02                                 F               0         Blade 1 Y force, node 38, N
        114   -9.987E+02                                 F               0         Blade 1 Z force, node 38, N
        115    6.301E+03                                 F               0         Blade 1 X force, node 39, N
        116   -2.444E+02                                 F               0         Blade 1 Y force, node 39, N
        117   -1.247E+03                                 F               0         Blade 1 Z force, node 39, N
        118    5.369E+03                                 F               0         Blade 1 X force, node 40, N
        119   -1.983E+02                                 F               0         Blade 1 Y force, node 40, N
        120   -1.082E+03                                 F               0         Blade 1 Z force, node 40, N
        121    7.619E+03                                 F               0         Blade 1 X force, node 41, N
        122   -2.654E+02                                 F               0         Blade 1 Y force, node 41, N
        123   -1.567E+03                                 F               0         Blade 1 Z force, node 41, N
        124    6.686E+03                                 F               0         Blade 1 X force, node 42, N
        125   -2.193E+02                                 F               0         Blade 1 Y force, node 42, N
        126   -1.402E+03                                 F               0         Blade 1 Z force, node 42, N
        127    6.813E+03                                 F               0         Blade 1 X force, node 43, N
        128   -2.109E+02                                 F               0         Blade 1 Y force, node 43, N
        129   -1.453E+03                                 F               0         Blade 1 Z force, node 43, N
        130    6.977E+03                                 F               0         Blade 1 X force, node 44, N
        131   -2.036E+02                                 F               0         Blade 1 Y force, node 44, N
        132   -1.513E+03                                 F               0         Blade 1 Z force, node 44, N
        133    7.031E+03                                 F               0         Blade 1 X force, node 45, N
        134   -1.932E+02                                 F               0         Blade 1 Y force, node 45, N
        135   -1.548E+03                                 F               0         Blade 1 Z force, node 45, N
        136    7.196E+03                                 F               0         Blade 1 X force, node 46, N
        137   -1.860E+02                                 F               0         Blade 1 Y force, node 46, N
        138   -1.608E+03                                 F               0         Blade 1 Z force, node 46, N
        139    8.609E+03                                 F               0         Blade 1 X force, node 47, N
        140   -2.080E+02                                 F               0         Blade 1 Y force, node 47, N
        141   -1.952E+03                                 F               0         Blade 1 Z force, node 47, N
        142    6.167E+03                                 F               0         Blade 1 X force, node 48, N
        143   -1.392E+02                                 F               0         Blade 1 Y force, node 48, N
        144   -1.418E+03                                 F               0         Blade 1 Z force, node 48, N
        145    7.580E+03                                 F               0         Blade 1 X force, node 49, N
        146   -1.613E+02                                 F               0         Blade 1 Y force, node 49, N
        147   -1.762E+03                                 F               0         Blade 1 Z force, node 49, N
        148    6.482E+03                                 F               0         Blade 1 X force, node 50, N
        149   -1.297E+02                                 F               0         Blade 1 Y force, node 50, N
        150   -1.523E+03                                 F               0         Blade 1 Z force, node 50, N
        151    9.061E+03                                 F               0         Blade 1 X force, node 51, N
        152   -1.683E+02                                 F               0         Blade 1 Y force, node 51, N
        153   -2.154E+03                                 F               0         Blade 1 Z force, node 51, N
        154    7.966E+03                                 F               0         Blade 1 X force, node 52, N
        155   -1.368E+02                                 F               0         Blade 1 Y force, node 52, N
        156   -1.916E+03                                 F               0         Blade 1 Z force, node 52, N
        157    8.096E+03                                 F               0         Blade 1 X force, node 53, N
        158   -1.288E+02                                 F               0         Blade 1 Y force, node 53, N
        159   -1.967E+03                                 F               0         Blade 1 Z force, node 53, N
        160    8.317E+03                                 F               0         Blade 1 X force, node 54, N
        161   -1.220E+02                                 F               0         Blade 1 Y force, node 54, N
        162   -2.041E+03                                 F               0         Blade 1 Z force, node 54, N
        163    8.265E+03                                 F               0         Blade 1 X force, node 55, N
        164   -1.114E+02                                 F               0         Blade 1 Y force, node 55, N
        165   -2.048E+03                                 F               0         Blade 1 Z force, node 55, N
        166    8.485E+03                                 F               0         Blade 1 X force, node 56, N
        167   -1.046E+02                                 F               0         Blade 1 Y force, node 56, N
        168   -2.122E+03                                 F               0         Blade 1 Z force, node 56, N
        169    1.017E+04                                 F               0         Blade 1 X force, node 57, N
        170   -1.133E+02                                 F               0         Blade 1 Y force, node 57, N
        171   -2.568E+03                                 F               0         Blade 1 Z force, node 57, N
        172    7.186E+03                                 F               0         Blade 1 X force, node 58, N
        173   -7.186E+01                                 F               0         Blade 1 Y force, node 58, N
        174   -1.830E+03                                 F               0         Blade 1 Z force, node 58, N
        175    8.875E+03                                 F               0         Blade 1 X force, node 59, N
        176   -8.057E+01                                 F               0         Blade 1 Y force, node 59, N
        177   -2.276E+03                                 F               0         Blade 1 Z force, node 59, N
        178    7.627E+03                                 F               0         Blade 1 X force, node 60, N
        179   -6.224E+01                                 F               0         Blade 1 Y force, node 60, N
        180   -1.970E+03                                 F               0         Blade 1 Z force, node 60, N
        181    1.051E+04                                 F               0         Blade 1 X force, node 61, N
        182   -7.488E+01                                 F               0         Blade 1 Y force, node 61, N
        183   -2.737E+03                                 F               0         Blade 1 Z force, node 61, N
        184    9.262E+03                                 F               0         Blade 1 X force, node 62, N
        185   -5.651E+01                                 F               0         Blade 1 Y force, node 62, N
        186   -2.430E+03                                 F               0         Blade 1 Z force, node 62, N
        187    9.390E+03                                 F               0         Blade 1 X force, node 63, N
        188   -4.847E+01                                 F               0         Blade 1 Y force, node 63, N
        189   -2.481E+03                                 F               0         Blade 1 Z force, node 63, N
        190    9.678E+03                                 F               0         Blade 1 X force, node 64, N
        191   -4.108E+01                                 F               0         Blade 1 Y force, node 64, N
        192   -2.574E+03                                 F               0         Blade 1 Z force, node 64, N
        193    9.490E+03                                 F               0         Blade 1 X force, node 65, N
        194   -3.190E+01                                 F               0         Blade 1 Y force, node 65, N
        195   -2.541E+03                                 F               0         Blade 1 Z force, node 65, N
        196    9.782E+03                                 F               0         Blade 1 X force, node 66, N
        197   -2.464E+01                                 F               0         Blade 1 Y force, node 66, N