
Linearized model: Predictions were generated on 06-Feb-2024 at 16:18:08 using OpenFAST, compiled as a 64-bit application using single precision at commit v3.5.1
 linked with  NWTC Subroutine Library; ElastoDyn; InflowWind; AeroDyn; ServoDyn; HydroDyn; MAP++ (<1.20.10>, <Oct-20-2023>)

Description from the FAST input file: CCT-9 Campign 4 model. Input files to be run with OpenFAST 3.5.0. GitHub branch from Lu Wang (https://github.com/luwang00/openfast/tree/dev) compiled on March 7, 2023.

Simulation information:
   Simulation time:                  1005.2250 s
   Rotor Speed:                         1.0418 rad/s
   Azimuth:                             0.6616 rad
   Wind Speed:                         12.0000 m/s
   Number of continuous states:         0
   Number of discrete states:           0
   Number of constraint states:         0
   Number of inputs:                  303
   Number of outputs:                   1
   Jacobians included in this file?    No

Order of inputs:
     Column   Operating Point                     Rotating Frame? Derivative Order Description
   ---------- ---------------                     --------------- ---------------- -----------
          1   -1.080E+01                                 F               0         X-component position of node 1 (hub), m
          2    0.000E+00                                 F               0         Y-component position of node 1 (hub), m
          3    1.497E+02                                 F               0         Z-component position of node 1 (hub), m
          4    2.697E+01                                 F               0         X-component position of node 2 (blade 1, node 1), m
          5   -1.136E+01                                 F               0         Y-component position of node 2 (blade 1, node 1), m
          6    1.532E+02                                 F               0         Z-component position of node 2 (blade 1, node 1), m
          7    2.725E+01                                 F               0         X-component position of node 3 (blade 1, node 2), m
          8   -1.224E+01                                 F               0         Y-component position of node 3 (blade 1, node 2), m
          9    1.542E+02                                 F               0         Z-component position of node 3 (blade 1, node 2), m
         10    3.097E+01                                 F               0         X-component position of node 4 (blade 1, node 3), m
         11   -2.408E+01                                 F               0         Y-component position of node 4 (blade 1, node 3), m
         12    1.674E+02                                 F               0         Z-component position of node 4 (blade 1, node 3), m
         13    3.176E+01                                 F               0         X-component position of node 5 (blade 1, node 4), m
         14   -2.660E+01                                 F               0         Y-component position of node 5 (blade 1, node 4), m
         15    1.702E+02                                 F               0         Z-component position of node 5 (blade 1, node 4), m
         16    3.255E+01                                 F               0         X-component position of node 6 (blade 1, node 5), m
         17   -2.913E+01                                 F               0         Y-component position of node 6 (blade 1, node 5), m
         18    1.730E+02                                 F               0         Z-component position of node 6 (blade 1, node 5), m
         19    3.335E+01                                 F               0         X-component position of node 7 (blade 1, node 6), m
         20   -3.165E+01                                 F               0         Y-component position of node 7 (blade 1, node 6), m
         21    1.759E+02                                 F               0         Z-component position of node 7 (blade 1, node 6), m
         22    3.414E+01                                 F               0         X-component position of node 8 (blade 1, node 7), m
         23   -3.417E+01                                 F               0         Y-component position of node 8 (blade 1, node 7), m
         24    1.787E+02                                 F               0         Z-component position of node 8 (blade 1, node 7), m
         25    3.493E+01                                 F               0         X-component position of node 9 (blade 1, node 8), m
         26   -3.670E+01                                 F               0         Y-component position of node 9 (blade 1, node 8), m
         27    1.815E+02                                 F               0         Z-component position of node 9 (blade 1, node 8), m
         28    3.573E+01                                 F               0         X-component position of node 10 (blade 1, node 9), m
         29   -3.922E+01                                 F               0         Y-component position of node 10 (blade 1, node 9), m
         30    1.843E+02                                 F               0         Z-component position of node 10 (blade 1, node 9), m
         31    3.652E+01                                 F               0         X-component position of node 11 (blade 1, node 10), m
         32   -4.174E+01                                 F               0         Y-component position of node 11 (blade 1, node 10), m
         33    1.872E+02                                 F               0         Z-component position of node 11 (blade 1, node 10), m
         34    3.731E+01                                 F               0         X-component position of node 12 (blade 1, node 11), m
         35   -4.427E+01                                 F               0         Y-component position of node 12 (blade 1, node 11), m
         36    1.900E+02                                 F               0         Z-component position of node 12 (blade 1, node 11), m
         37    3.810E+01                                 F               0         X-component position of node 13 (blade 1, node 12), m
         38   -4.679E+01                                 F               0         Y-component position of node 13 (blade 1, node 12), m
         39    1.928E+02                                 F               0         Z-component position of node 13 (blade 1, node 12), m
         40    3.890E+01                                 F               0         X-component position of node 14 (blade 1, node 13), m
         41   -4.931E+01                                 F               0         Y-component position of node 14 (blade 1, node 13), m
         42    1.956E+02                                 F               0         Z-component position of node 14 (blade 1, node 13), m
         43    3.969E+01                                 F               0         X-component position of node 15 (blade 1, node 14), m
         44   -5.184E+01                                 F               0         Y-component position of node 15 (blade 1, node 14), m
         45    1.984E+02                                 F               0         Z-component position of node 15 (blade 1, node 14), m
         46    4.048E+01                                 F               0         X-component position of node 16 (blade 1, node 15), m
         47   -5.436E+01                                 F               0         Y-component position of node 16 (blade 1, node 15), m
         48    2.013E+02                                 F               0         Z-component position of node 16 (blade 1, node 15), m
         49    4.128E+01                                 F               0         X-component position of node 17 (blade 1, node 16), m
         50   -5.688E+01                                 F               0         Y-component position of node 17 (blade 1, node 16), m
         51    2.041E+02                                 F               0         Z-component position of node 17 (blade 1, node 16), m
         52    4.207E+01                                 F               0         X-component position of node 18 (blade 1, node 17), m
         53   -5.941E+01                                 F               0         Y-component position of node 18 (blade 1, node 17), m
         54    2.069E+02                                 F               0         Z-component position of node 18 (blade 1, node 17), m
         55    4.286E+01                                 F               0         X-component position of node 19 (blade 1, node 18), m
         56   -6.193E+01                                 F               0         Y-component position of node 19 (blade 1, node 18), m
         57    2.097E+02                                 F               0         Z-component position of node 19 (blade 1, node 18), m
         58    4.366E+01                                 F               0         X-component position of node 20 (blade 1, node 19), m
         59   -6.445E+01                                 F               0         Y-component position of node 20 (blade 1, node 19), m
         60    2.126E+02                                 F               0         Z-component position of node 20 (blade 1, node 19), m
         61    4.445E+01                                 F               0         X-component position of node 21 (blade 1, node 20), m
         62   -6.698E+01                                 F               0         Y-component position of node 21 (blade 1, node 20), m
         63    2.154E+02                                 F               0         Z-component position of node 21 (blade 1, node 20), m
         64    4.524E+01                                 F               0         X-component position of node 22 (blade 1, node 21), m
         65   -6.950E+01                                 F               0         Y-component position of node 22 (blade 1, node 21), m
         66    2.182E+02                                 F               0         Z-component position of node 22 (blade 1, node 21), m
         67    4.603E+01                                 F               0         X-component position of node 23 (blade 1, node 22), m
         68   -7.202E+01                                 F               0         Y-component position of node 23 (blade 1, node 22), m
         69    2.210E+02                                 F               0         Z-component position of node 23 (blade 1, node 22), m
         70    4.683E+01                                 F               0         X-component position of node 24 (blade 1, node 23), m
         71   -7.455E+01                                 F               0         Y-component position of node 24 (blade 1, node 23), m
         72    2.238E+02                                 F               0         Z-component position of node 24 (blade 1, node 23), m
         73    4.762E+01                                 F               0         X-component position of node 25 (blade 1, node 24), m
         74   -7.707E+01                                 F               0         Y-component position of node 25 (blade 1, node 24), m
         75    2.267E+02                                 F               0         Z-component position of node 25 (blade 1, node 24), m
         76    4.841E+01                                 F               0         X-component position of node 26 (blade 1, node 25), m
         77   -7.959E+01                                 F               0         Y-component position of node 26 (blade 1, node 25), m
         78    2.295E+02                                 F               0         Z-component position of node 26 (blade 1, node 25), m
         79    4.921E+01                                 F               0         X-component position of node 27 (blade 1, node 26), m
         80   -8.212E+01                                 F               0         Y-component position of node 27 (blade 1, node 26), m
         81    2.323E+02                                 F               0         Z-component position of node 27 (blade 1, node 26), m
         82    5.000E+01                                 F               0         X-component position of node 28 (blade 1, node 27), m
         83   -8.464E+01                                 F               0         Y-component position of node 28 (blade 1, node 27), m
         84    2.351E+02                                 F               0         Z-component position of node 28 (blade 1, node 27), m
         85    5.067E+01                                 F               0         X-component position of node 29 (blade 1, node 28), m
         86   -8.678E+01                                 F               0         Y-component position of node 29 (blade 1, node 28), m
         87    2.375E+02                                 F               0         Z-component position of node 29 (blade 1, node 28), m
         88    2.444E+01                                 F               0         X-component position of node 30 (blade 2, node 1), m
         89   -9.579E+00                                 F               0         Y-component position of node 30 (blade 2, node 1), m
         90    1.441E+02                                 F               0         Z-component position of node 30 (blade 2, node 1), m
         91    2.410E+01                                 F               0         X-component position of node 31 (blade 2, node 2), m
         92   -1.002E+01                                 F               0         Y-component position of node 31 (blade 2, node 2), m
         93    1.429E+02                                 F               0         Z-component position of node 31 (blade 2, node 2), m
         94    1.951E+01                                 F               0         X-component position of node 32 (blade 2, node 3), m
         95   -1.601E+01                                 F               0         Y-component position of node 32 (blade 2, node 3), m
         96    1.264E+02                                 F               0         Z-component position of node 32 (blade 2, node 3), m
         97    1.853E+01                                 F               0         X-component position of node 33 (blade 2, node 4), m
         98   -1.729E+01                                 F               0         Y-component position of node 33 (blade 2, node 4), m
         99    1.229E+02                                 F               0         Z-component position of node 33 (blade 2, node 4), m
        100    1.755E+01                                 F               0         X-component position of node 34 (blade 2, node 5), m
        101   -1.857E+01                                 F               0         Y-component position of node 34 (blade 2, node 5), m
        102    1.193E+02                                 F               0         Z-component position of node 34 (blade 2, node 5), m
        103    1.657E+01                                 F               0         X-component position of node 35 (blade 2, node 6), m
        104   -1.984E+01                                 F               0         Y-component position of node 35 (blade 2, node 6), m
        105    1.158E+02                                 F               0         Z-component position of node 35 (blade 2, node 6), m
        106    1.559E+01                                 F               0         X-component position of node 36 (blade 2, node 7), m
        107   -2.112E+01                                 F               0         Y-component position of node 36 (blade 2, node 7), m
        108    1.123E+02                                 F               0         Z-component position of node 36 (blade 2, node 7), m
        109    1.462E+01                                 F               0         X-component position of node 37 (blade 2, node 8), m
        110   -2.240E+01                                 F               0         Y-component position of node 37 (blade 2, node 8), m
        111    1.088E+02                                 F               0         Z-component position of node 37 (blade 2, node 8), m
        112    1.364E+01                                 F               0         X-component position of node 38 (blade 2, node 9), m
        113   -2.367E+01                                 F               0         Y-component position of node 38 (blade 2, node 9), m
        114    1.053E+02                                 F               0         Z-component position of node 38 (blade 2, node 9), m
        115    1.266E+01                                 F               0         X-component position of node 39 (blade 2, node 10), m
        116   -2.495E+01                                 F               0         Y-component position of node 39 (blade 2, node 10), m
        117    1.018E+02                                 F               0         Z-component position of node 39 (blade 2, node 10), m
        118    1.168E+01                                 F               0         X-component position of node 40 (blade 2, node 11), m
        119   -2.623E+01                                 F               0         Y-component position of node 40 (blade 2, node 11), m
        120    9.824E+01                                 F               0         Z-component position of node 40 (blade 2, node 11), m
        121    1.070E+01                                 F               0         X-component position of node 41 (blade 2, node 12), m
        122   -2.750E+01                                 F               0         Y-component position of node 41 (blade 2, node 12), m
        123    9.473E+01                                 F               0         Z-component position of node 41 (blade 2, node 12), m
        124    9.726E+00                                 F               0         X-component position of node 42 (blade 2, node 13), m
        125   -2.878E+01                                 F               0         Y-component position of node 42 (blade 2, node 13), m
        126    9.121E+01                                 F               0         Z-component position of node 42 (blade 2, node 13), m
        127    8.747E+00                                 F               0         X-component position of node 43 (blade 2, node 14), m
        128   -3.006E+01                                 F               0         Y-component position of node 43 (blade 2, node 14), m
        129    8.769E+01                                 F               0         Z-component position of node 43 (blade 2, node 14), m
        130    7.769E+00                                 F               0         X-component position of node 44 (blade 2, node 15), m
        131   -3.133E+01                                 F               0         Y-component position of node 44 (blade 2, node 15), m
        132    8.417E+01                                 F               0         Z-component position of node 44 (blade 2, node 15), m
        133    6.791E+00                                 F               0         X-component position of node 45 (blade 2, node 16), m
        134   -3.261E+01                                 F               0         Y-component position of node 45 (blade 2, node 16), m
        135    8.066E+01                                 F               0         Z-component position of node 45 (blade 2, node 16), m
        136    5.813E+00                                 F               0         X-component position of node 46 (blade 2, node 17), m
        137   -3.389E+01                                 F               0         Y-component position of node 46 (blade 2, node 17), m
        138    7.714E+01                                 F               0         Z-component position of node 46 (blade 2, node 17), m
        139    4.835E+00                                 F               0         X-component position of node 47 (blade 2, node 18), m
        140   -3.516E+01                                 F               0         Y-component position of node 47 (blade 2, node 18), m
        141    7.362E+01                                 F               0         Z-component position of node 47 (blade 2, node 18), m
        142    3.857E+00                                 F               0         X-component position of node 48 (blade 2, node 19), m
        143   -3.644E+01                                 F               0         Y-component position of node 48 (blade 2, node 19), m
        144    7.010E+01                                 F               0         Z-component position of node 48 (blade 2, node 19), m
        145    2.878E+00                                 F               0         X-component position of node 49 (blade 2, node 20), m
        146   -3.772E+01                                 F               0         Y-component position of node 49 (blade 2, node 20), m
        147    6.659E+01                                 F               0         Z-component position of node 49 (blade 2, node 20), m
        148    1.900E+00                                 F               0         X-component position of node 50 (blade 2, node 21), m
        149   -3.899E+01                                 F               0         Y-component position of node 50 (blade 2, node 21), m
        150    6.307E+01                                 F               0         Z-component position of node 50 (blade 2, node 21), m
        151    9.221E-01                                 F               0         X-component position of node 51 (blade 2, node 22), m
        152   -4.027E+01                                 F               0         Y-component position of node 51 (blade 2, node 22), m
        153    5.955E+01                                 F               0         Z-component position of node 51 (blade 2, node 22), m
        154   -5.601E-02                                 F               0         X-component position of node 52 (blade 2, node 23), m
        155   -4.155E+01                                 F               0         Y-component position of node 52 (blade 2, node 23), m
        156    5.604E+01                                 F               0         Z-component position of node 52 (blade 2, node 23), m
        157   -1.034E+00                                 F               0         X-component position of node 53 (blade 2, node 24), m
        158   -4.282E+01                                 F               0         Y-component position of node 53 (blade 2, node 24), m
        159    5.252E+01                                 F               0         Z-component position of node 53 (blade 2, node 24), m
        160   -2.012E+00                                 F               0         X-component position of node 54 (blade 2, node 25), m
        161   -4.410E+01                                 F               0         Y-component position of node 54 (blade 2, node 25), m
        162    4.900E+01                                 F               0         Z-component position of node 54 (blade 2, node 25), m
        163   -2.991E+00                                 F               0         X-component position of node 55 (blade 2, node 26), m
        164   -4.538E+01                                 F               0         Y-component position of node 55 (blade 2, node 26), m
        165    4.548E+01                                 F               0         Z-component position of node 55 (blade 2, node 26), m
        166   -3.969E+00                                 F               0         X-component position of node 56 (blade 2, node 27), m
        167   -4.666E+01                                 F               0         Y-component position of node 56 (blade 2, node 27), m
        168    4.197E+01                                 F               0         Z-component position of node 56 (blade 2, node 27), m
        169   -4.798E+00                                 F               0         X-component position of node 57 (blade 2, node 28), m
        170   -4.774E+01                                 F               0         Y-component position of node 57 (blade 2, node 28), m
        171    3.898E+01                                 F               0         Z-component position of node 57 (blade 2, node 28), m
        172    2.610E+01                                 F               0         X-component position of node 58 (blade 3, node 1), m
        173   -2.307E+00                                 F               0         Y-component position of node 58 (blade 3, node 1), m
        174    1.501E+02                                 F               0         Z-component position of node 58 (blade 3, node 1), m
        175    2.617E+01                                 F               0         X-component position of node 59 (blade 3, node 2), m
        176   -9.956E-01                                 F               0         Y-component position of node 59 (blade 3, node 2), m
        177    1.504E+02                                 F               0         Z-component position of node 59 (blade 3, node 2), m
        178    2.704E+01                                 F               0         X-component position of node 60 (blade 3, node 3), m
        179    1.684E+01                                 F               0         Y-component position of node 60 (blade 3, node 3), m
        180    1.536E+02                                 F               0         Z-component position of node 60 (blade 3, node 3), m
        181    2.722E+01                                 F               0         X-component position of node 61 (blade 3, node 4), m
        182    2.064E+01                                 F               0         Y-component position of node 61 (blade 3, node 4), m
        183    1.543E+02                                 F               0         Z-component position of node 61 (blade 3, node 4), m
        184    2.741E+01                                 F               0         X-component position of node 62 (blade 3, node 5), m
        185    2.444E+01                                 F               0         Y-component position of node 62 (blade 3, node 5), m
        186    1.550E+02                                 F               0         Z-component position of node 62 (blade 3, node 5), m
        187    2.759E+01                                 F               0         X-component position of node 63 (blade 3, node 6), m
        188    2.824E+01                                 F               0         Y-component position of node 63 (blade 3, node 6), m
        189    1.557E+02                                 F               0         Z-component position of node 63 (blade 3, node 6), m
        190    2.778E+01                                 F               0         X-component position of node 64 (blade 3, node 7), m
        191    3.204E+01                                 F               0         Y-component position of node 64 (blade 3, node 7), m
        192    1.564E+02                                 F               0         Z-component position of node 64 (blade 3, node 7), m
        193    2.796E+01                                 F               0         X-component position of node 65 (blade 3, node 8), m
        194    3.584E+01                                 F               0         Y-component position of node 65 (blade 3, node 8), m
        195    1.571E+02                                 F               0         Z-component position of node 65 (blade 3, node 8), m
        196    2.815E+01                                 F               0         X-component position of node 66 (blade 3, node 9), m
        197    3.964E+01                                 F               0         Y-component position of node 66 (blade 3, node 9), m
        198    1.578E+02                                 F               0         Z-component position of node 66 (blade 3, node 9), m
        199    2.833E+01                                 F               0         X-component position of node 67 (blade 3, node 10), m
        200    4.344E+01                                 F               0         Y-component position of node 67 (blade 3, node 10), m
        201    1.585E+02                                 F               0         Z-component position of node 67 (blade 3, node 10), m
        202    2.852E+01                                 F               0         X-component position of node 68 (blade 3, node 11), m
        203    4.724E+01                                 F               0         Y-component position of node 68 (blade 3, node 11), m
        204    1.592E+02                                 F               0         Z-component position of node 68 (blade 3, node 11), m
        205    2.870E+01                                 F               0         X-component position of node 69 (blade 3, node 12), m
        206    5.104E+01                                 F               0         Y-component position of node 69 (blade 3, node 12), m
        207    1.599E+02                                 F               0         Z-component position of node 69 (blade 3, node 12), m
        208    2.889E+01                                 F               0         X-component position of node 70 (blade 3, node 13), m
        209    5.484E+01                                 F               0         Y-component position of node 70 (blade 3, node 13), m
        210    1.606E+02                                 F               0         Z-component position of node 70 (blade 3, node 13), m
        211    2.907E+01                                 F               0         X-component position of node 71 (blade 3, node 14), m