
Linearized model: Predictions were generated on 06-Feb-2024 at 16:18:08 using OpenFAST, compiled as a 64-bit application using single precision at commit v3.5.1
 linked with  NWTC Subroutine Library; ElastoDyn; InflowWind; AeroDyn; ServoDyn; HydroDyn; MAP++ (<1.20.10>, <Oct-20-2023>)

Description from the FAST input file: CCT-9 Campign 4 model. Input files to be run with OpenFAST 3.5.0. GitHub branch from Lu Wang (https://github.com/luwang00/openfast/tree/dev) compiled on March 7, 2023.

Simulation information:
   Simulation time:                  1003.2500 s
   Rotor Speed:                         1.0421 rad/s
   Azimuth:                             4.8870 rad
   Wind Speed:                         12.0000 m/s
   Number of continuous states:         0
   Number of discrete states:           0
   Number of constraint states:         0
   Number of inputs:                 1746
   Number of outputs:                   4
   Jacobians included in this file?    No

Order of inputs:
     Column   Operating Point                     Rotating Frame? Derivative Order Description
   ---------- ---------------                     --------------- ---------------- -----------
          1    1.513E+01                                 F               0         Tower X translation displacement, node 1, m
          2   -1.424E+00                                 F               0         Tower Y translation displacement, node 1, m
          3   -4.963E-01                                 F               0         Tower Z translation displacement, node 1, m
          4    1.704E+01                                 F               0         Tower X translation displacement, node 2, m
          5   -2.006E+00                                 F               0         Tower Y translation displacement, node 2, m
          6   -6.590E-01                                 F               0         Tower Z translation displacement, node 2, m
          7    1.899E+01                                 F               0         Tower X translation displacement, node 3, m
          8   -2.593E+00                                 F               0         Tower Y translation displacement, node 3, m
          9   -8.274E-01                                 F               0         Tower Z translation displacement, node 3, m
         10    2.096E+01                                 F               0         Tower X translation displacement, node 4, m
         11   -3.185E+00                                 F               0         Tower Y translation displacement, node 4, m
         12   -1.000E+00                                 F               0         Tower Z translation displacement, node 4, m
         13    2.296E+01                                 F               0         Tower X translation displacement, node 5, m
         14   -3.780E+00                                 F               0         Tower Y translation displacement, node 5, m
         15   -1.177E+00                                 F               0         Tower Z translation displacement, node 5, m
         16    2.497E+01                                 F               0         Tower X translation displacement, node 6, m
         17   -4.378E+00                                 F               0         Tower Y translation displacement, node 6, m
         18   -1.356E+00                                 F               0         Tower Z translation displacement, node 6, m
         19    2.699E+01                                 F               0         Tower X translation displacement, node 7, m
         20   -4.979E+00                                 F               0         Tower Y translation displacement, node 7, m
         21   -1.538E+00                                 F               0         Tower Z translation displacement, node 7, m
         22    2.903E+01                                 F               0         Tower X translation displacement, node 8, m
         23   -5.582E+00                                 F               0         Tower Y translation displacement, node 8, m
         24   -1.722E+00                                 F               0         Tower Z translation displacement, node 8, m
         25    3.108E+01                                 F               0         Tower X translation displacement, node 9, m
         26   -6.186E+00                                 F               0         Tower Y translation displacement, node 9, m
         27   -1.908E+00                                 F               0         Tower Z translation displacement, node 9, m
         28    3.313E+01                                 F               0         Tower X translation displacement, node 10, m
         29   -6.791E+00                                 F               0         Tower Y translation displacement, node 10, m
         30   -2.094E+00                                 F               0         Tower Z translation displacement, node 10, m
         31    3.518E+01                                 F               0         Tower X translation displacement, node 11, m
         32   -7.398E+00                                 F               0         Tower Y translation displacement, node 11, m
         33   -2.281E+00                                 F               0         Tower Z translation displacement, node 11, m
         34    9.881E-01, -3.531E-03, -1.540E-01         F               0         Tower X orientation angle, node 1, rad
         35    1.071E-02,  9.989E-01,  4.580E-02         F               0         Tower Y orientation angle, node 1, rad
         36    1.537E-01, -4.691E-02,  9.870E-01         F               0         Tower Z orientation angle, node 1, rad
         37    9.877E-01, -3.407E-03, -1.566E-01         F               0         Tower X orientation angle, node 2, rad
         38    1.077E-02,  9.989E-01,  4.621E-02         F               0         Tower Y orientation angle, node 2, rad
         39    1.563E-01, -4.732E-02,  9.866E-01         F               0         Tower Z orientation angle, node 2, rad
         40    9.873E-01, -3.297E-03, -1.589E-01         F               0         Tower X orientation angle, node 3, rad
         41    1.083E-02,  9.989E-01,  4.657E-02         F               0         Tower Y orientation angle, node 3, rad
         42    1.585E-01, -4.769E-02,  9.862E-01         F               0         Tower Z orientation angle, node 3, rad
         43    9.870E-01, -3.201E-03, -1.608E-01         F               0         Tower X orientation angle, node 4, rad
         44    1.088E-02,  9.988E-01,  4.688E-02         F               0         Tower Y orientation angle, node 4, rad
         45    1.605E-01, -4.802E-02,  9.859E-01         F               0         Tower Z orientation angle, node 4, rad
         46    9.867E-01, -3.122E-03, -1.625E-01         F               0         Tower X orientation angle, node 5, rad
         47    1.092E-02,  9.988E-01,  4.715E-02         F               0         Tower Y orientation angle, node 5, rad
         48    1.621E-01, -4.830E-02,  9.856E-01         F               0         Tower Z orientation angle, node 5, rad
         49    9.865E-01, -3.056E-03, -1.638E-01         F               0         Tower X orientation angle, node 6, rad
         50    1.096E-02,  9.988E-01,  4.737E-02         F               0         Tower Y orientation angle, node 6, rad
         51    1.635E-01, -4.853E-02,  9.854E-01         F               0         Tower Z orientation angle, node 6, rad
         52    9.863E-01, -3.006E-03, -1.648E-01         F               0         Tower X orientation angle, node 7, rad
         53    1.099E-02,  9.988E-01,  4.755E-02         F               0         Tower Y orientation angle, node 7, rad
         54    1.645E-01, -4.871E-02,  9.852E-01         F               0         Tower Z orientation angle, node 7, rad
         55    9.862E-01, -2.968E-03, -1.656E-01         F               0         Tower X orientation angle, node 8, rad
         56    1.101E-02,  9.988E-01,  4.769E-02         F               0         Tower Y orientation angle, node 8, rad
         57    1.652E-01, -4.886E-02,  9.850E-01         F               0         Tower Z orientation angle, node 8, rad
         58    9.861E-01, -2.941E-03, -1.661E-01         F               0         Tower X orientation angle, node 9, rad
         59    1.103E-02,  9.988E-01,  4.780E-02         F               0         Tower Y orientation angle, node 9, rad
         60    1.658E-01, -4.896E-02,  9.849E-01         F               0         Tower Z orientation angle, node 9, rad
         61    9.860E-01, -2.924E-03, -1.665E-01         F               0         Tower X orientation angle, node 10, rad
         62    1.104E-02,  9.988E-01,  4.786E-02         F               0         Tower Y orientation angle, node 10, rad
         63    1.661E-01, -4.903E-02,  9.849E-01         F               0         Tower Z orientation angle, node 10, rad
         64    9.860E-01, -2.915E-03, -1.666E-01         F               0         Tower X orientation angle, node 11, rad
         65    1.105E-02,  9.988E-01,  4.790E-02         F               0         Tower Y orientation angle, node 11, rad
         66    1.663E-01, -4.907E-02,  9.849E-01         F               0         Tower Z orientation angle, node 11, rad
         67   -4.591E-05                                 F               0         Tower X translation velocity, node 1, m/s
         68   -6.121E-04                                 F               0         Tower Y translation velocity, node 1, m/s
         69    7.605E-04                                 F               0         Tower Z translation velocity, node 1, m/s
         70   -1.008E-04                                 F               0         Tower X translation velocity, node 2, m/s
         71   -1.010E-03                                 F               0         Tower Y translation velocity, node 2, m/s
         72    7.501E-04                                 F               0         Tower Z translation velocity, node 2, m/s
         73   -1.846E-04                                 F               0         Tower X translation velocity, node 3, m/s
         74   -1.370E-03                                 F               0         Tower Y translation velocity, node 3, m/s
         75    7.462E-04                                 F               0         Tower Z translation velocity, node 3, m/s
         76   -2.873E-04                                 F               0         Tower X translation velocity, node 4, m/s
         77   -1.696E-03                                 F               0         Tower Y translation velocity, node 4, m/s
         78    7.470E-04                                 F               0         Tower Z translation velocity, node 4, m/s
         79   -4.023E-04                                 F               0         Tower X translation velocity, node 5, m/s
         80   -1.993E-03                                 F               0         Tower Y translation velocity, node 5, m/s
         81    7.513E-04                                 F               0         Tower Z translation velocity, node 5, m/s
         82   -5.241E-04                                 F               0         Tower X translation velocity, node 6, m/s
         83   -2.261E-03                                 F               0         Tower Y translation velocity, node 6, m/s
         84    7.582E-04                                 F               0         Tower Z translation velocity, node 6, m/s
         85   -6.481E-04                                 F               0         Tower X translation velocity, node 7, m/s
         86   -2.506E-03                                 F               0         Tower Y translation velocity, node 7, m/s
         87    7.668E-04                                 F               0         Tower Z translation velocity, node 7, m/s
         88   -7.714E-04                                 F               0         Tower X translation velocity, node 8, m/s
         89   -2.730E-03                                 F               0         Tower Y translation velocity, node 8, m/s
         90    7.764E-04                                 F               0         Tower Z translation velocity, node 8, m/s
         91   -8.919E-04                                 F               0         Tower X translation velocity, node 9, m/s
         92   -2.935E-03                                 F               0         Tower Y translation velocity, node 9, m/s
         93    7.864E-04                                 F               0         Tower Z translation velocity, node 9, m/s
         94   -1.009E-03                                 F               0         Tower X translation velocity, node 10, m/s
         95   -3.127E-03                                 F               0         Tower Y translation velocity, node 10, m/s
         96    7.966E-04                                 F               0         Tower Z translation velocity, node 10, m/s
         97   -1.123E-03                                 F               0         Tower X translation velocity, node 11, m/s
         98   -3.311E-03                                 F               0         Tower Y translation velocity, node 11, m/s
         99    8.066E-04                                 F               0         Tower Z translation velocity, node 11, m/s
        100    3.664E+01                                 F               0         Hub X translation displacement, node 1, m
        101   -7.751E+00                                 F               0         Hub Y translation displacement, node 1, m
        102   -6.006E-01                                 F               0         Hub Z translation displacement, node 1, m
        103    9.632E-01,  2.230E-03, -2.687E-01         F               0         Hub X orientation angle, node 1, rad
        104   -2.625E-01,  2.219E-01, -9.391E-01         F               0         Hub Y orientation angle, node 1, rad
        105    5.752E-02,  9.751E-01,  2.143E-01         F               0         Hub Z orientation angle, node 1, rad
        106    1.004E+00                                 F               0         Hub X rotation velocity, node 1, rad/s
        107    2.314E-03                                 F               0         Hub Y rotation velocity, node 1, rad/s
        108   -2.800E-01                                 F               0         Hub Z rotation velocity, node 1, rad/s
        109    9.706E-01, -4.353E-03, -2.407E-01         F               0         Blade root 1 X orientation angle, node 1, rad
        110   -2.338E-01,  2.218E-01, -9.466E-01         F               0         Blade root 1 Y orientation angle, node 1, rad
        111    5.752E-02,  9.751E-01,  2.143E-01         F               0         Blade root 1 Z orientation angle, node 1, rad
        112    9.574E-01, -1.953E-02, -2.880E-01         F               0         Blade root 2 X orientation angle, node 1, rad
        113    2.095E-01,  7.332E-01,  6.469E-01         F               0         Blade root 2 Y orientation angle, node 1, rad
        114    1.985E-01, -6.797E-01,  7.061E-01         F               0         Blade root 2 Z orientation angle, node 1, rad
        115    9.604E-01,  3.057E-02, -2.770E-01         F               0         Blade root 3 X orientation angle, node 1, rad
        116    1.100E-01, -9.549E-01,  2.759E-01         F               0         Blade root 3 Y orientation angle, node 1, rad
        117   -2.560E-01, -2.954E-01, -9.204E-01         F               0         Blade root 3 Z orientation angle, node 1, rad
        118    3.638E+01                                 F               0         Blade 1 X translation displacement, node 1, m
        119   -2.349E+00                                 F               0         Blade 1 Y translation displacement, node 1, m
        120   -4.923E+00                                 F               0         Blade 1 Z translation displacement, node 1, m
        121    3.631E+01                                 F               0         Blade 1 X translation displacement, node 2, m
        122   -1.048E+00                                 F               0         Blade 1 Y translation displacement, node 2, m
        123   -5.965E+00                                 F               0         Blade 1 Z translation displacement, node 2, m
        124    3.546E+01                                 F               0         Blade 1 X translation displacement, node 3, m
        125    1.665E+01                                 F               0         Blade 1 Y translation displacement, node 3, m
        126   -2.013E+01                                 F               0         Blade 1 Z translation displacement, node 3, m
        127    3.528E+01                                 F               0         Blade 1 X translation displacement, node 4, m
        128    2.042E+01                                 F               0         Blade 1 Y translation displacement, node 4, m
        129   -2.314E+01                                 F               0         Blade 1 Z translation displacement, node 4, m
        130    3.510E+01                                 F               0         Blade 1 X translation displacement, node 5, m
        131    2.419E+01                                 F               0         Blade 1 Y translation displacement, node 5, m
        132   -2.616E+01                                 F               0         Blade 1 Z translation displacement, node 5, m
        133    3.492E+01                                 F               0         Blade 1 X translation displacement, node 6, m
        134    2.797E+01                                 F               0         Blade 1 Y translation displacement, node 6, m
        135   -2.918E+01                                 F               0         Blade 1 Z translation displacement, node 6, m
        136    3.473E+01                                 F               0         Blade 1 X translation displacement, node 7, m
        137    3.174E+01                                 F               0         Blade 1 Y translation displacement, node 7, m
        138   -3.220E+01                                 F               0         Blade 1 Z translation displacement, node 7, m
        139    3.455E+01                                 F               0         Blade 1 X translation displacement, node 8, m
        140    3.551E+01                                 F               0         Blade 1 Y translation displacement, node 8, m
        141   -3.522E+01                                 F               0         Blade 1 Z translation displacement, node 8, m
        142    3.437E+01                                 F               0         Blade 1 X translation displacement, node 9, m
        143    3.928E+01                                 F               0         Blade 1 Y translation displacement, node 9, m
        144   -3.823E+01                                 F               0         Blade 1 Z translation displacement, node 9, m
        145    3.419E+01                                 F               0         Blade 1 X translation displacement, node 10, m
        146    4.305E+01                                 F               0         Blade 1 Y translation displacement, node 10, m
        147   -4.125E+01                                 F               0         Blade 1 Z translation displacement, node 10, m
        148    3.401E+01                                 F               0         Blade 1 X translation displacement, node 11, m
        149    4.682E+01                                 F               0         Blade 1 Y translation displacement, node 11, m
        150   -4.427E+01                                 F               0         Blade 1 Z translation displacement, node 11, m
        151    3.382E+01                                 F               0         Blade 1 X translation displacement, node 12, m
        152    5.059E+01                                 F               0         Blade 1 Y translation displacement, node 12, m
        153   -4.729E+01                                 F               0         Blade 1 Z translation displacement, node 12, m
        154    3.364E+01                                 F               0         Blade 1 X translation displacement, node 13, m
        155    5.437E+01                                 F               0         Blade 1 Y translation displacement, node 13, m
        156   -5.030E+01                                 F               0         Blade 1 Z translation displacement, node 13, m
        157    3.346E+01                                 F               0         Blade 1 X translation displacement, node 14, m
        158    5.814E+01                                 F               0         Blade 1 Y translation displacement, node 14, m
        159   -5.332E+01                                 F               0         Blade 1 Z translation displacement, node 14, m
        160    3.328E+01                                 F               0         Blade 1 X translation displacement, node 15, m
        161    6.191E+01                                 F               0         Blade 1 Y translation displacement, node 15, m
        162   -5.634E+01                                 F               0         Blade 1 Z translation displacement, node 15, m
        163    3.310E+01                                 F               0         Blade 1 X translation displacement, node 16, m
        164    6.568E+01                                 F               0         Blade 1 Y translation displacement, node 16, m
        165   -5.936E+01                                 F               0         Blade 1 Z translation displacement, node 16, m
        166    3.292E+01                                 F               0         Blade 1 X translation displacement, node 17, m
        167    6.945E+01                                 F               0         Blade 1 Y translation displacement, node 17, m
        168   -6.237E+01                                 F               0         Blade 1 Z translation displacement, node 17, m
        169    3.273E+01                                 F               0         Blade 1 X translation displacement, node 18, m
        170    7.322E+01                                 F               0         Blade 1 Y translation displacement, node 18, m
        171   -6.539E+01                                 F               0         Blade 1 Z translation displacement, node 18, m
        172    3.255E+01                                 F               0         Blade 1 X translation displacement, node 19, m
        173    7.699E+01                                 F               0         Blade 1 Y translation displacement, node 19, m
        174   -6.841E+01                                 F               0         Blade 1 Z translation displacement, node 19, m
        175    3.237E+01                                 F               0         Blade 1 X translation displacement, node 20, m
        176    8.076E+01                                 F               0         Blade 1 Y translation displacement, node 20, m
        177   -7.143E+01                                 F               0         Blade 1 Z translation displacement, node 20, m
        178    3.219E+01                                 F               0         Blade 1 X translation displacement, node 21, m
        179    8.454E+01                                 F               0         Blade 1 Y translation displacement, node 21, m
        180   -7.445E+01                                 F               0         Blade 1 Z translation displacement, node 21, m
        181    3.201E+01                                 F               0         Blade 1 X translation displacement, node 22, m
        182    8.831E+01                                 F               0         Blade 1 Y translation displacement, node 22, m
        183   -7.746E+01                                 F               0         Blade 1 Z translation displacement, node 22, m
        184    3.182E+01                                 F               0         Blade 1 X translation displacement, node 23, m
        185    9.208E+01                                 F               0         Blade 1 Y translation displacement, node 23, m
        186   -8.048E+01                                 F               0         Blade 1 Z translation displacement, node 23, m
        187    3.164E+01                                 F               0         Blade 1 X translation displacement, node 24, m
        188    9.585E+01                                 F               0         Blade 1 Y translation displacement, node 24, m
        189   -8.350E+01                                 F               0         Blade 1 Z translation displacement, node 24, m
        190    3.146E+01                                 F               0         Blade 1 X translation displacement, node 25, m
        191    9.962E+01                                 F               0         Blade 1 Y translation displacement, node 25, m
        192   -8.652E+01                                 F               0         Blade 1 Z translation displacement, node 25, m
        193    3.128E+01                                 F               0         Blade 1 X translation displacement, node 26, m
        194    1.034E+02                                 F               0         Blade 1 Y translation displacement, node 26, m
        195   -8.953E+01                                 F               0         Blade 1 Z translation displacement, node 26, m
        196    3.110E+01                                 F               0         Blade 1 X translation displacement, node 27, m
        197    1.072E+02                                 F               0         Blade 1 Y translation displacement, node 27, m
        198   -9.255E+01                                 F               0         Blade 1 Z translation displacement, node 27, m
        199    3.094E+01                                 F               0         Blade 1 X translation displacement, node 28, m
        200    1.104E+02                                 F               0         Blade 1 Y translation displacement, node 28, m
        201   -9.511E+01                                 F               0         Blade 1 Z translation displacement, node 28, m
        202    9.704E-01, -1.050E-01,  2.175E-01         F               0         Blade 1 X orientation angle, node 1, rad
        203    2.346E-01,  1.955E-01, -9.523E-01         F               0         Blade 1 Y orientation angle, node 1, rad
        204    5.752E-02,  9.751E-01,  2.143E-01         F               0         Blade 1 Z orientation angle, node 1, rad
        205    9.704E-01, -1.050E-01,  2.175E-01         F               0         Blade 1 X orientation angle, node 2, rad
        206    2.346E-01,  1.955E-01, -9.523E-01         F               0         Blade 1 Y orientation angle, node 2, rad
        207    5.752E-02,  9.751E-01,  2.143E-01         F               0         Blade 1 Z orientation angle, node 2, rad
        208    9.983E-01, -5.572E-02, -1.442E-02         F               0         Blade 1 X orientation angle, node 3, rad
        209   -2.115E-03,  2.148E-01, -9.767E-01         F               0         Blade 1 Y orientation angle, node 3, rad
        210    5.752E-02,  9.751E-01,  2.143E-01         F               0         Blade 1 Z orientation angle, node 3, rad
        211    9.974E-01, -4.660E-02, -5.564E-02         F               0         Blade 1 X orientation angle, node 4, rad
        212   -4.427E-02,  2.169E-01, -9.752E-01         F               0         Blade 1 Y orientation angle, node 4, rad
        213    5.752E-02,  9.751E-01,  2.143E-01         F               0         Blade 1 Z orientation angle, node 4, rad
        214    9.953E-01, -3.938E-02, -8.794E-02         F               0         Blade 1 X orientation angle, node 5, rad
        215   -7.731E-02,  2.184E-01, -9.728E-01         F               0         Blade 1 Y orientation angle, node 5, rad
        216    5.752E-02,  9.751E-01,  2.143E-01         F               0         Blade 1 Z orientation angle, node 5, rad
        217    9.929E-01, -3.358E-02, -1.137E-01         F               0         Blade 1 X orientation angle, node 6, rad
        218   -1.037E-01,  2.193E-01, -9.701E-01         F               0         Blade 1 Y orientation angle, node 6, rad
        219    5.752E-02,  9.751E-01,  2.143E-01         F               0         Blade 1 Z orientation angle, node 6, rad
        220    9.904E-01, -2.879E-02, -1.349E-01         F               0         Blade 1 X orientation angle, node 7, rad
        221   -1.253E-01,  2.200E-01, -9.674E-01         F               0         Blade 1 Y orientation angle, node 7, rad
        222    5.752E-02,  9.751E-01,  2.143E-01         F               0         Blade 1 Z orientation angle, node 7, rad
        223    9.880E-01, -2.479E-02, -1.524E-01         F               0         Blade 1 X orientation angle, node 8, rad
        224   -1.433E-01,  2.205E-01, -9.648E-01         F               0         Blade 1 Y orientation angle, node 8, rad
        225    5.752E-02,  9.751E-01,  2.143E-01         F               0         Blade 1 Z orientation angle, node 8, rad
        226    9.857E-01, -2.140E-02, -1.672E-01         F               0         Blade 1 X orientation angle, node 9, rad
        227   -1.584E-01,  2.209E-01, -9.624E-01         F               0         Blade 1 Y orientation angle, node 9, rad