
Linearized model: Predictions were generated on 06-Feb-2024 at 16:18:08 using OpenFAST, compiled as a 64-bit application using single precision at commit v3.5.1
 linked with  NWTC Subroutine Library; ElastoDyn; InflowWind; AeroDyn; ServoDyn; HydroDyn; MAP++ (<1.20.10>, <Oct-20-2023>)

Description from the FAST input file: CCT-9 Campign 4 model. Input files to be run with OpenFAST 3.5.0. GitHub branch from Lu Wang (https://github.com/luwang00/openfast/tree/dev) compiled on March 7, 2023.

Simulation information:
   Simulation time:                  1007.9500 s
   Rotor Speed:                         1.0421 rad/s
   Azimuth:                             3.5009 rad
   Wind Speed:                         12.0000 m/s
   Number of continuous states:        18
   Number of discrete states:           0
   Number of constraint states:         0
   Number of inputs:                 1890
   Number of outputs:                  19
   Jacobians included in this file?    No

Order of continuous states:
   Row/Column Operating Point                     Rotating Frame? Derivative Order Description
   ---------- ---------------                     --------------- ---------------- -----------
          1    1.231E+01                                 F               2         Platform horizontal surge translation DOF (internal DOF index = DOF_Sg), m
          2   -2.411E-01                                 F               2         Platform vertical heave translation DOF (internal DOF index = DOF_Hv), m
          3    4.691E-02                                 F               2         Platform roll tilt rotation DOF (internal DOF index = DOF_R), rad
          4    1.559E-01                                 F               2         Platform pitch tilt rotation DOF (internal DOF index = DOF_P), rad
          5    1.079E+00                                 F               2         1st tower fore-aft bending mode DOF (internal DOF index = DOF_TFA1), m
          6    1.771E-01                                 F               2         1st tower side-to-side bending mode DOF (internal DOF index = DOF_TSS1), m
          7    1.609E-03                                 F               2         2nd tower fore-aft bending mode DOF (internal DOF index = DOF_TFA2), m
          8    7.691E-05                                 F               2         2nd tower side-to-side bending mode DOF (internal DOF index = DOF_TSS2), m
          9    1.930E+00                                 F               2         Variable speed generator DOF (internal DOF index = DOF_GeAz), rad
         10    3.041E-04                                 F               2         First time derivative of Platform horizontal surge translation DOF (internal DOF index = DOF_Sg), m/s
         11    5.083E-03                                 F               2         First time derivative of Platform vertical heave translation DOF (internal DOF index = DOF_Hv), m/s
         12    3.470E-05                                 F               2         First time derivative of Platform roll tilt rotation DOF (internal DOF index = DOF_R), rad/s
         13    1.578E-05                                 F               2         First time derivative of Platform pitch tilt rotation DOF (internal DOF index = DOF_P), rad/s
         14   -1.212E-03                                 F               2         First time derivative of 1st tower fore-aft bending mode DOF (internal DOF index = DOF_TFA1), m/s
         15   -1.615E-03                                 F               2         First time derivative of 1st tower side-to-side bending mode DOF (internal DOF index = DOF_TSS1), m/s
         16   -2.503E-06                                 F               2         First time derivative of 2nd tower fore-aft bending mode DOF (internal DOF index = DOF_TFA2), m/s
         17    3.542E-07                                 F               2         First time derivative of 2nd tower side-to-side bending mode DOF (internal DOF index = DOF_TSS2), m/s
         18    1.042E+00                                 F               2         First time derivative of Variable speed generator DOF (internal DOF index = DOF_GeAz), rad/s

Order of continuous state derivatives:
   Row/Column Operating Point                     Rotating Frame? Derivative Order Description
   ---------- ---------------                     --------------- ---------------- -----------
          1    3.041E-04                                 F               2         First time derivative of Platform horizontal surge translation DOF (internal DOF index = DOF_Sg), m/s
          2    5.083E-03                                 F               2         First time derivative of Platform vertical heave translation DOF (internal DOF index = DOF_Hv), m/s
          3    3.470E-05                                 F               2         First time derivative of Platform roll tilt rotation DOF (internal DOF index = DOF_R), rad/s
          4    1.578E-05                                 F               2         First time derivative of Platform pitch tilt rotation DOF (internal DOF index = DOF_P), rad/s
          5   -1.212E-03                                 F               2         First time derivative of 1st tower fore-aft bending mode DOF (internal DOF index = DOF_TFA1), m/s
          6   -1.615E-03                                 F               2         First time derivative of 1st tower side-to-side bending mode DOF (internal DOF index = DOF_TSS1), m/s
          7   -2.503E-06                                 F               2         First time derivative of 2nd tower fore-aft bending mode DOF (internal DOF index = DOF_TFA2), m/s
          8    3.542E-07                                 F               2         First time derivative of 2nd tower side-to-side bending mode DOF (internal DOF index = DOF_TSS2), m/s
          9    1.042E+00                                 F               2         First time derivative of Variable speed generator DOF (internal DOF index = DOF_GeAz), rad/s
         10   -4.949E-04                                 F               2         First time derivative of First time derivative of Platform horizontal surge translation DOF (internal DOF index = DOF_Sg), m/s/s
         11   -3.661E-04                                 F               2         First time derivative of First time derivative of Platform vertical heave translation DOF (internal DOF index = DOF_Hv), m/s/s
         12    3.323E-05                                 F               2         First time derivative of First time derivative of Platform roll tilt rotation DOF (internal DOF index = DOF_R), rad/s/s
         13   -2.634E-05                                 F               2         First time derivative of First time derivative of Platform pitch tilt rotation DOF (internal DOF index = DOF_P), rad/s/s
         14    5.834E-03                                 F               2         First time derivative of First time derivative of 1st tower fore-aft bending mode DOF (internal DOF index = DOF_TFA1), m/s/s
         15   -2.097E-03                                 F               2         First time derivative of First time derivative of 1st tower side-to-side bending mode DOF (internal DOF index = DOF_TSS1), m/s/s
         16    1.552E-05                                 F               2         First time derivative of First time derivative of 2nd tower fore-aft bending mode DOF (internal DOF index = DOF_TFA2), m/s/s
         17   -1.943E-06                                 F               2         First time derivative of First time derivative of 2nd tower side-to-side bending mode DOF (internal DOF index = DOF_TSS2), m/s/s
         18    9.648E-05                                 F               2         First time derivative of First time derivative of Variable speed generator DOF (internal DOF index = DOF_GeAz), rad/s/s

Order of inputs:
     Column   Operating Point                     Rotating Frame? Derivative Order Description
   ---------- ---------------                     --------------- ---------------- -----------
          1    8.652E+01                                 F               0         Blade 1 X force, node 1, N
          2   -7.211E+01                                 F               0         Blade 1 Y force, node 1, N
          3   -5.663E+01                                 F               0         Blade 1 Z force, node 1, N
          4    4.015E+02                                 F               0         Blade 1 X force, node 2, N
          5   -1.413E+02                                 F               0         Blade 1 Y force, node 2, N
          6   -1.759E+02                                 F               0         Blade 1 Z force, node 2, N
          7    5.632E+02                                 F               0         Blade 1 X force, node 3, N
          8   -6.095E+01                                 F               0         Blade 1 Y force, node 3, N
          9   -1.851E+02                                 F               0         Blade 1 Z force, node 3, N
         10    7.677E+02                                 F               0         Blade 1 X force, node 4, N
         11    3.027E+00                                 F               0         Blade 1 Y force, node 4, N
         12   -2.136E+02                                 F               0         Blade 1 Z force, node 4, N
         13    9.723E+02                                 F               0         Blade 1 X force, node 5, N
         14    6.701E+01                                 F               0         Blade 1 Y force, node 5, N
         15   -2.421E+02                                 F               0         Blade 1 Z force, node 5, N
         16    1.177E+03                                 F               0         Blade 1 X force, node 6, N
         17    1.310E+02                                 F               0         Blade 1 Y force, node 6, N
         18   -2.706E+02                                 F               0         Blade 1 Z force, node 6, N
         19    1.381E+03                                 F               0         Blade 1 X force, node 7, N
         20    1.950E+02                                 F               0         Blade 1 Y force, node 7, N
         21   -2.992E+02                                 F               0         Blade 1 Z force, node 7, N
         22    1.586E+03                                 F               0         Blade 1 X force, node 8, N
         23    2.589E+02                                 F               0         Blade 1 Y force, node 8, N
         24   -3.277E+02                                 F               0         Blade 1 Z force, node 8, N
         25    1.791E+03                                 F               0         Blade 1 X force, node 9, N
         26    3.229E+02                                 F               0         Blade 1 Y force, node 9, N
         27   -3.562E+02                                 F               0         Blade 1 Z force, node 9, N
         28    1.995E+03                                 F               0         Blade 1 X force, node 10, N
         29    3.869E+02                                 F               0         Blade 1 Y force, node 10, N
         30   -3.847E+02                                 F               0         Blade 1 Z force, node 10, N
         31    2.200E+03                                 F               0         Blade 1 X force, node 11, N
         32    4.509E+02                                 F               0         Blade 1 Y force, node 11, N
         33   -4.132E+02                                 F               0         Blade 1 Z force, node 11, N
         34    2.404E+03                                 F               0         Blade 1 X force, node 12, N
         35    5.149E+02                                 F               0         Blade 1 Y force, node 12, N
         36   -4.417E+02                                 F               0         Blade 1 Z force, node 12, N
         37    2.609E+03                                 F               0         Blade 1 X force, node 13, N
         38    5.789E+02                                 F               0         Blade 1 Y force, node 13, N
         39   -4.703E+02                                 F               0         Blade 1 Z force, node 13, N
         40    2.813E+03                                 F               0         Blade 1 X force, node 14, N
         41    6.428E+02                                 F               0         Blade 1 Y force, node 14, N
         42   -4.988E+02                                 F               0         Blade 1 Z force, node 14, N
         43    3.018E+03                                 F               0         Blade 1 X force, node 15, N
         44    7.068E+02                                 F               0         Blade 1 Y force, node 15, N
         45   -5.273E+02                                 F               0         Blade 1 Z force, node 15, N
         46    3.222E+03                                 F               0         Blade 1 X force, node 16, N
         47    7.708E+02                                 F               0         Blade 1 Y force, node 16, N
         48   -5.558E+02                                 F               0         Blade 1 Z force, node 16, N
         49    3.975E+03                                 F               0         Blade 1 X force, node 17, N
         50    9.643E+02                                 F               0         Blade 1 Y force, node 17, N
         51   -6.795E+02                                 F               0         Blade 1 Z force, node 17, N
         52    3.044E+03                                 F               0         Blade 1 X force, node 18, N
         53    7.131E+02                                 F               0         Blade 1 Y force, node 18, N
         54   -5.318E+02                                 F               0         Blade 1 Z force, node 18, N
         55    3.746E+03                                 F               0         Blade 1 X force, node 19, N
         56    8.357E+02                                 F               0         Blade 1 Y force, node 19, N
         57   -6.732E+02                                 F               0         Blade 1 Z force, node 19, N
         58    3.202E+03                                 F               0         Blade 1 X force, node 20, N
         59    6.816E+02                                 F               0         Blade 1 Y force, node 20, N
         60   -5.902E+02                                 F               0         Blade 1 Z force, node 20, N
         61    4.742E+03                                 F               0         Blade 1 X force, node 21, N
         62    9.556E+02                                 F               0         Blade 1 Y force, node 21, N
         63   -8.983E+02                                 F               0         Blade 1 Z force, node 21, N
         64    4.197E+03                                 F               0         Blade 1 X force, node 22, N
         65    8.005E+02                                 F               0         Blade 1 Y force, node 22, N
         66   -8.154E+02                                 F               0         Blade 1 Z force, node 22, N
         67    4.321E+03                                 F               0         Blade 1 X force, node 23, N
         68    7.838E+02                                 F               0         Blade 1 Y force, node 23, N
         69   -8.576E+02                                 F               0         Blade 1 Z force, node 23, N
         70    4.522E+03                                 F               0         Blade 1 X force, node 24, N
         71    7.805E+02                                 F               0         Blade 1 Y force, node 24, N
         72   -9.155E+02                                 F               0         Blade 1 Z force, node 24, N
         73    4.645E+03                                 F               0         Blade 1 X force, node 25, N
         74    7.632E+02                                 F               0         Blade 1 Y force, node 25, N
         75   -9.575E+02                                 F               0         Blade 1 Z force, node 25, N
         76    4.793E+03                                 F               0         Blade 1 X force, node 26, N
         77    7.503E+02                                 F               0         Blade 1 Y force, node 26, N
         78   -1.005E+03                                 F               0         Blade 1 Z force, node 26, N
         79    5.755E+03                                 F               0         Blade 1 X force, node 27, N
         80    8.563E+02                                 F               0         Blade 1 Y force, node 27, N
         81   -1.226E+03                                 F               0         Blade 1 Z force, node 27, N
         82    4.274E+03                                 F               0         Blade 1 X force, node 28, N
         83    6.054E+02                                 F               0         Blade 1 Y force, node 28, N
         84   -9.247E+02                                 F               0         Blade 1 Z force, node 28, N
         85    5.237E+03                                 F               0         Blade 1 X force, node 29, N
         86    7.113E+02                                 F               0         Blade 1 Y force, node 29, N
         87   -1.147E+03                                 F               0         Blade 1 Z force, node 29, N
         88    4.461E+03                                 F               0         Blade 1 X force, node 30, N
         89    5.816E+02                                 F               0         Blade 1 Y force, node 30, N
         90   -9.877E+02                                 F               0         Blade 1 Z force, node 30, N
         91    6.456E+03                                 F               0         Blade 1 X force, node 31, N
         92    8.019E+02                                 F               0         Blade 1 Y force, node 31, N
         93   -1.447E+03                                 F               0         Blade 1 Z force, node 31, N
         94    5.680E+03                                 F               0         Blade 1 X force, node 32, N
         95    6.719E+02                                 F               0         Blade 1 Y force, node 32, N
         96   -1.288E+03                                 F               0         Blade 1 Z force, node 32, N
         97    5.826E+03                                 F               0         Blade 1 X force, node 33, N
         98    6.586E+02                                 F               0         Blade 1 Y force, node 33, N
         99   -1.335E+03                                 F               0         Blade 1 Z force, node 33, N
        100    5.974E+03                                 F               0         Blade 1 X force, node 34, N
        101    6.454E+02                                 F               0         Blade 1 Y force, node 34, N
        102   -1.383E+03                                 F               0         Blade 1 Z force, node 34, N
        103    6.122E+03                                 F               0         Blade 1 X force, node 35, N
        104    6.322E+02                                 F               0         Blade 1 Y force, node 35, N
        105   -1.430E+03                                 F               0         Blade 1 Z force, node 35, N
        106    6.268E+03                                 F               0         Blade 1 X force, node 36, N
        107    6.188E+02                                 F               0         Blade 1 Y force, node 36, N
        108   -1.477E+03                                 F               0         Blade 1 Z force, node 36, N
        109    7.507E+03                                 F               0         Blade 1 X force, node 37, N
        110    7.064E+02                                 F               0         Blade 1 Y force, node 37, N
        111   -1.784E+03                                 F               0         Blade 1 Z force, node 37, N
        112    5.473E+03                                 F               0         Blade 1 X force, node 38, N
        113    4.914E+02                                 F               0         Blade 1 Y force, node 38, N
        114   -1.311E+03                                 F               0         Blade 1 Z force, node 38, N
        115    6.713E+03                                 F               0         Blade 1 X force, node 39, N
        116    5.792E+02                                 F               0         Blade 1 Y force, node 39, N
        117   -1.619E+03                                 F               0         Blade 1 Z force, node 39, N
        118    5.728E+03                                 F               0         Blade 1 X force, node 40, N
        119    4.749E+02                                 F               0         Blade 1 Y force, node 40, N
        120   -1.390E+03                                 F               0         Blade 1 Z force, node 40, N
        121    8.143E+03                                 F               0         Blade 1 X force, node 41, N
        122    6.440E+02                                 F               0         Blade 1 Y force, node 41, N
        123   -1.990E+03                                 F               0         Blade 1 Z force, node 41, N
        124    7.156E+03                                 F               0         Blade 1 X force, node 42, N
        125    5.394E+02                                 F               0         Blade 1 Y force, node 42, N
        126   -1.761E+03                                 F               0         Blade 1 Z force, node 42, N
        127    7.302E+03                                 F               0         Blade 1 X force, node 43, N
        128    5.260E+02                                 F               0         Blade 1 Y force, node 43, N
        129   -1.808E+03                                 F               0         Blade 1 Z force, node 43, N
        130    7.488E+03                                 F               0         Blade 1 X force, node 44, N
        131    5.152E+02                                 F               0         Blade 1 Y force, node 44, N
        132   -1.865E+03                                 F               0         Blade 1 Z force, node 44, N
        133    7.556E+03                                 F               0         Blade 1 X force, node 45, N
        134    4.965E+02                                 F               0         Blade 1 Y force, node 45, N
        135   -1.892E+03                                 F               0         Blade 1 Z force, node 45, N
        136    7.743E+03                                 F               0         Blade 1 X force, node 46, N
        137    4.858E+02                                 F               0         Blade 1 Y force, node 46, N
        138   -1.949E+03                                 F               0         Blade 1 Z force, node 46, N
        139    9.274E+03                                 F               0         Blade 1 X force, node 47, N
        140    5.536E+02                                 F               0         Blade 1 Y force, node 47, N
        141   -2.348E+03                                 F               0         Blade 1 Z force, node 47, N
        142    6.652E+03                                 F               0         Blade 1 X force, node 48, N
        143    3.778E+02                                 F               0         Blade 1 Y force, node 48, N
        144   -1.693E+03                                 F               0         Blade 1 Z force, node 48, N
        145    8.182E+03                                 F               0         Blade 1 X force, node 49, N
        146    4.456E+02                                 F               0         Blade 1 Y force, node 49, N
        147   -2.091E+03                                 F               0         Blade 1 Z force, node 49, N
        148    7.004E+03                                 F               0         Blade 1 X force, node 50, N
        149    3.652E+02                                 F               0         Blade 1 Y force, node 50, N
        150   -1.797E+03                                 F               0         Blade 1 Z force, node 50, N
        151    9.800E+03                                 F               0         Blade 1 X force, node 51, N
        152    4.856E+02                                 F               0         Blade 1 Y force, node 51, N
        153   -2.526E+03                                 F               0         Blade 1 Z force, node 51, N
        154    8.624E+03                                 F               0         Blade 1 X force, node 52, N
        155    4.056E+02                                 F               0         Blade 1 Y force, node 52, N
        156   -2.232E+03                                 F               0         Blade 1 Z force, node 52, N
        157    8.773E+03                                 F               0         Blade 1 X force, node 53, N
        158    3.924E+02                                 F               0         Blade 1 Y force, node 53, N
        159   -2.280E+03                                 F               0         Blade 1 Z force, node 53, N
        160    9.020E+03                                 F               0         Blade 1 X force, node 54, N
        161    3.833E+02                                 F               0         Blade 1 Y force, node 54, N
        162   -2.353E+03                                 F               0         Blade 1 Z force, node 54, N
        163    8.971E+03                                 F               0         Blade 1 X force, node 55, N
        164    3.619E+02                                 F               0         Blade 1 Y force, node 55, N
        165   -2.349E+03                                 F               0         Blade 1 Z force, node 55, N
        166    9.217E+03                                 F               0         Blade 1 X force, node 56, N
        167    3.527E+02                                 F               0         Blade 1 Y force, node 56, N
        168   -2.422E+03                                 F               0         Blade 1 Z force, node 56, N
        169    1.106E+04                                 F               0         Blade 1 X force, node 57, N
        170    3.994E+02                                 F               0         Blade 1 Y force, node 57, N
        171   -2.917E+03                                 F               0         Blade 1 Z force, node 57, N
        172    7.818E+03                                 F               0         Blade 1 X force, node 58, N
        173    2.663E+02                                 F               0         Blade 1 Y force, node 58, N
        174   -2.069E+03                                 F               0         Blade 1 Z force, node 58, N
        175    9.662E+03                                 F               0         Blade 1 X force, node 59, N
        176    3.130E+02                                 F               0         Blade 1 Y force, node 59, N
        177   -2.564E+03                                 F               0         Blade 1 Z force, node 59, N
        178    8.308E+03                                 F               0         Blade 1 X force, node 60, N
        179    2.553E+02                                 F               0         Blade 1 Y force, node 60, N
        180   -2.211E+03                                 F               0         Blade 1 Z force, node 60, N
        181    1.146E+04                                 F               0         Blade 1 X force, node 61, N
        182    3.307E+02                                 F               0         Blade 1 Y force, node 61, N
        183   -3.060E+03                                 F               0         Blade 1 Z force, node 61, N
        184    1.010E+04                                 F               0         Blade 1 X force, node 62, N
        185    2.729E+02                                 F               0         Blade 1 Y force, node 62, N
        186   -2.706E+03                                 F               0         Blade 1 Z force, node 62, N
        187    1.025E+04                                 F               0         Blade 1 X force, node 63, N
        188    2.594E+02                                 F               0         Blade 1 Y force, node 63, N
        189   -2.753E+03                                 F               0         Blade 1 Z force, node 63, N
        190    1.057E+04                                 F               0         Blade 1 X force, node 64, N
        191    2.499E+02                                 F               0         Blade 1 Y force, node 64, N
        192   -2.846E+03                                 F               0         Blade 1 Z force, node 64, N
        193    1.037E+04                                 F               0         Blade 1 X force, node 65, N
        194    2.288E+02                                 F               0         Blade 1 Y force, node 65, N
        195   -2.800E+03                                 F               0         Blade 1 Z force, node 65, N
        196    1.069E+04                                 F               0         Blade 1 X force, node 66, N
        197    2.197E+02                                 F               0         Blade 1 Y force, node 66, N