
Linearized model: Predictions were generated on 06-Feb-2024 at 16:18:08 using OpenFAST, compiled as a 64-bit application using single precision at commit v3.5.1
 linked with  NWTC Subroutine Library; ElastoDyn; InflowWind; AeroDyn; ServoDyn; HydroDyn; MAP++ (<1.20.10>, <Oct-20-2023>)

Description from the FAST input file: CCT-9 Campign 4 model. Input files to be run with OpenFAST 3.5.0. GitHub branch from Lu Wang (https://github.com/luwang00/openfast/tree/dev) compiled on March 7, 2023.

Simulation information:
   Simulation time:                  1002.0000 s
   Rotor Speed:                         1.0421 rad/s
   Azimuth:                             3.5844 rad
   Wind Speed:                         12.0000 m/s
   Number of continuous states:         0
   Number of discrete states:           0
   Number of constraint states:         0
   Number of inputs:                  303
   Number of outputs:                   1
   Jacobians included in this file?    No

Order of inputs:
     Column   Operating Point                     Rotating Frame? Derivative Order Description
   ---------- ---------------                     --------------- ---------------- -----------
          1   -1.080E+01                                 F               0         X-component position of node 1 (hub), m
          2    0.000E+00                                 F               0         Y-component position of node 1 (hub), m
          3    1.497E+02                                 F               0         Z-component position of node 1 (hub), m
          4    2.452E+01                                 F               0         X-component position of node 2 (blade 1, node 1), m
          5   -5.130E+00                                 F               0         Y-component position of node 2 (blade 1, node 1), m
          6    1.444E+02                                 F               0         Z-component position of node 2 (blade 1, node 1), m
          7    2.420E+01                                 F               0         X-component position of node 3 (blade 1, node 2), m
          8   -4.500E+00                                 F               0         Y-component position of node 3 (blade 1, node 2), m
          9    1.433E+02                                 F               0         Z-component position of node 3 (blade 1, node 2), m
         10    1.989E+01                                 F               0         X-component position of node 4 (blade 1, node 3), m
         11    4.074E+00                                 F               0         Y-component position of node 4 (blade 1, node 3), m
         12    1.279E+02                                 F               0         Z-component position of node 4 (blade 1, node 3), m
         13    1.897E+01                                 F               0         X-component position of node 5 (blade 1, node 4), m
         14    5.900E+00                                 F               0         Y-component position of node 5 (blade 1, node 4), m
         15    1.246E+02                                 F               0         Z-component position of node 5 (blade 1, node 4), m
         16    1.805E+01                                 F               0         X-component position of node 6 (blade 1, node 5), m
         17    7.727E+00                                 F               0         Y-component position of node 6 (blade 1, node 5), m
         18    1.213E+02                                 F               0         Z-component position of node 6 (blade 1, node 5), m
         19    1.713E+01                                 F               0         X-component position of node 7 (blade 1, node 6), m
         20    9.554E+00                                 F               0         Y-component position of node 7 (blade 1, node 6), m
         21    1.180E+02                                 F               0         Z-component position of node 7 (blade 1, node 6), m
         22    1.621E+01                                 F               0         X-component position of node 8 (blade 1, node 7), m
         23    1.138E+01                                 F               0         Y-component position of node 8 (blade 1, node 7), m
         24    1.148E+02                                 F               0         Z-component position of node 8 (blade 1, node 7), m
         25    1.529E+01                                 F               0         X-component position of node 9 (blade 1, node 8), m
         26    1.321E+01                                 F               0         Y-component position of node 9 (blade 1, node 8), m
         27    1.115E+02                                 F               0         Z-component position of node 9 (blade 1, node 8), m
         28    1.437E+01                                 F               0         X-component position of node 10 (blade 1, node 9), m
         29    1.503E+01                                 F               0         Y-component position of node 10 (blade 1, node 9), m
         30    1.082E+02                                 F               0         Z-component position of node 10 (blade 1, node 9), m
         31    1.345E+01                                 F               0         X-component position of node 11 (blade 1, node 10), m
         32    1.686E+01                                 F               0         Y-component position of node 11 (blade 1, node 10), m
         33    1.049E+02                                 F               0         Z-component position of node 11 (blade 1, node 10), m
         34    1.253E+01                                 F               0         X-component position of node 12 (blade 1, node 11), m
         35    1.869E+01                                 F               0         Y-component position of node 12 (blade 1, node 11), m
         36    1.016E+02                                 F               0         Z-component position of node 12 (blade 1, node 11), m
         37    1.161E+01                                 F               0         X-component position of node 13 (blade 1, node 12), m
         38    2.051E+01                                 F               0         Y-component position of node 13 (blade 1, node 12), m
         39    9.835E+01                                 F               0         Z-component position of node 13 (blade 1, node 12), m
         40    1.069E+01                                 F               0         X-component position of node 14 (blade 1, node 13), m
         41    2.234E+01                                 F               0         Y-component position of node 14 (blade 1, node 13), m
         42    9.507E+01                                 F               0         Z-component position of node 14 (blade 1, node 13), m
         43    9.767E+00                                 F               0         X-component position of node 15 (blade 1, node 14), m
         44    2.417E+01                                 F               0         Y-component position of node 15 (blade 1, node 14), m
         45    9.179E+01                                 F               0         Z-component position of node 15 (blade 1, node 14), m
         46    8.847E+00                                 F               0         X-component position of node 16 (blade 1, node 15), m
         47    2.599E+01                                 F               0         Y-component position of node 16 (blade 1, node 15), m
         48    8.851E+01                                 F               0         Z-component position of node 16 (blade 1, node 15), m
         49    7.927E+00                                 F               0         X-component position of node 17 (blade 1, node 16), m
         50    2.782E+01                                 F               0         Y-component position of node 17 (blade 1, node 16), m
         51    8.522E+01                                 F               0         Z-component position of node 17 (blade 1, node 16), m
         52    7.007E+00                                 F               0         X-component position of node 18 (blade 1, node 17), m
         53    2.965E+01                                 F               0         Y-component position of node 18 (blade 1, node 17), m
         54    8.194E+01                                 F               0         Z-component position of node 18 (blade 1, node 17), m
         55    6.088E+00                                 F               0         X-component position of node 19 (blade 1, node 18), m
         56    3.147E+01                                 F               0         Y-component position of node 19 (blade 1, node 18), m
         57    7.866E+01                                 F               0         Z-component position of node 19 (blade 1, node 18), m
         58    5.168E+00                                 F               0         X-component position of node 20 (blade 1, node 19), m
         59    3.330E+01                                 F               0         Y-component position of node 20 (blade 1, node 19), m
         60    7.537E+01                                 F               0         Z-component position of node 20 (blade 1, node 19), m
         61    4.248E+00                                 F               0         X-component position of node 21 (blade 1, node 20), m
         62    3.513E+01                                 F               0         Y-component position of node 21 (blade 1, node 20), m
         63    7.209E+01                                 F               0         Z-component position of node 21 (blade 1, node 20), m
         64    3.328E+00                                 F               0         X-component position of node 22 (blade 1, node 21), m
         65    3.695E+01                                 F               0         Y-component position of node 22 (blade 1, node 21), m
         66    6.881E+01                                 F               0         Z-component position of node 22 (blade 1, node 21), m
         67    2.408E+00                                 F               0         X-component position of node 23 (blade 1, node 22), m
         68    3.878E+01                                 F               0         Y-component position of node 23 (blade 1, node 22), m
         69    6.553E+01                                 F               0         Z-component position of node 23 (blade 1, node 22), m
         70    1.488E+00                                 F               0         X-component position of node 24 (blade 1, node 23), m
         71    4.061E+01                                 F               0         Y-component position of node 24 (blade 1, node 23), m
         72    6.224E+01                                 F               0         Z-component position of node 24 (blade 1, node 23), m
         73    5.686E-01                                 F               0         X-component position of node 25 (blade 1, node 24), m
         74    4.243E+01                                 F               0         Y-component position of node 25 (blade 1, node 24), m
         75    5.896E+01                                 F               0         Z-component position of node 25 (blade 1, node 24), m
         76   -3.512E-01                                 F               0         X-component position of node 26 (blade 1, node 25), m
         77    4.426E+01                                 F               0         Y-component position of node 26 (blade 1, node 25), m
         78    5.568E+01                                 F               0         Z-component position of node 26 (blade 1, node 25), m
         79   -1.271E+00                                 F               0         X-component position of node 27 (blade 1, node 26), m
         80    4.609E+01                                 F               0         Y-component position of node 27 (blade 1, node 26), m
         81    5.240E+01                                 F               0         Z-component position of node 27 (blade 1, node 26), m
         82   -2.191E+00                                 F               0         X-component position of node 28 (blade 1, node 27), m
         83    4.791E+01                                 F               0         Y-component position of node 28 (blade 1, node 27), m
         84    4.911E+01                                 F               0         Z-component position of node 28 (blade 1, node 27), m
         85   -2.971E+00                                 F               0         X-component position of node 29 (blade 1, node 28), m
         86    4.946E+01                                 F               0         Y-component position of node 29 (blade 1, node 28), m
         87    4.633E+01                                 F               0         Z-component position of node 29 (blade 1, node 28), m
         88    2.710E+01                                 F               0         X-component position of node 30 (blade 2, node 1), m
         89   -4.826E+00                                 F               0         Y-component position of node 30 (blade 2, node 1), m
         90    1.537E+02                                 F               0         Z-component position of node 30 (blade 2, node 1), m
         91    2.740E+01                                 F               0         X-component position of node 31 (blade 2, node 2), m
         92   -4.122E+00                                 F               0         Y-component position of node 31 (blade 2, node 2), m
         93    1.548E+02                                 F               0         Z-component position of node 31 (blade 2, node 2), m
         94    3.152E+01                                 F               0         X-component position of node 32 (blade 2, node 3), m
         95    5.448E+00                                 F               0         Y-component position of node 32 (blade 2, node 3), m
         96    1.696E+02                                 F               0         Z-component position of node 32 (blade 2, node 3), m
         97    3.240E+01                                 F               0         X-component position of node 33 (blade 2, node 4), m
         98    7.487E+00                                 F               0         Y-component position of node 33 (blade 2, node 4), m
         99    1.728E+02                                 F               0         Z-component position of node 33 (blade 2, node 4), m
        100    3.328E+01                                 F               0         X-component position of node 34 (blade 2, node 5), m
        101    9.526E+00                                 F               0         Y-component position of node 34 (blade 2, node 5), m
        102    1.760E+02                                 F               0         Z-component position of node 34 (blade 2, node 5), m
        103    3.416E+01                                 F               0         X-component position of node 35 (blade 2, node 6), m
        104    1.156E+01                                 F               0         Y-component position of node 35 (blade 2, node 6), m
        105    1.791E+02                                 F               0         Z-component position of node 35 (blade 2, node 6), m
        106    3.504E+01                                 F               0         X-component position of node 36 (blade 2, node 7), m
        107    1.360E+01                                 F               0         Y-component position of node 36 (blade 2, node 7), m
        108    1.823E+02                                 F               0         Z-component position of node 36 (blade 2, node 7), m
        109    3.592E+01                                 F               0         X-component position of node 37 (blade 2, node 8), m
        110    1.564E+01                                 F               0         Y-component position of node 37 (blade 2, node 8), m
        111    1.855E+02                                 F               0         Z-component position of node 37 (blade 2, node 8), m
        112    3.679E+01                                 F               0         X-component position of node 38 (blade 2, node 9), m
        113    1.768E+01                                 F               0         Y-component position of node 38 (blade 2, node 9), m
        114    1.886E+02                                 F               0         Z-component position of node 38 (blade 2, node 9), m
        115    3.767E+01                                 F               0         X-component position of node 39 (blade 2, node 10), m
        116    1.972E+01                                 F               0         Y-component position of node 39 (blade 2, node 10), m
        117    1.918E+02                                 F               0         Z-component position of node 39 (blade 2, node 10), m
        118    3.855E+01                                 F               0         X-component position of node 40 (blade 2, node 11), m
        119    2.176E+01                                 F               0         Y-component position of node 40 (blade 2, node 11), m
        120    1.950E+02                                 F               0         Z-component position of node 40 (blade 2, node 11), m
        121    3.943E+01                                 F               0         X-component position of node 41 (blade 2, node 12), m
        122    2.380E+01                                 F               0         Y-component position of node 41 (blade 2, node 12), m
        123    1.981E+02                                 F               0         Z-component position of node 41 (blade 2, node 12), m
        124    4.031E+01                                 F               0         X-component position of node 42 (blade 2, node 13), m
        125    2.584E+01                                 F               0         Y-component position of node 42 (blade 2, node 13), m
        126    2.013E+02                                 F               0         Z-component position of node 42 (blade 2, node 13), m
        127    4.119E+01                                 F               0         X-component position of node 43 (blade 2, node 14), m
        128    2.788E+01                                 F               0         Y-component position of node 43 (blade 2, node 14), m
        129    2.045E+02                                 F               0         Z-component position of node 43 (blade 2, node 14), m
        130    4.207E+01                                 F               0         X-component position of node 44 (blade 2, node 15), m
        131    2.992E+01                                 F               0         Y-component position of node 44 (blade 2, node 15), m
        132    2.076E+02                                 F               0         Z-component position of node 44 (blade 2, node 15), m
        133    4.294E+01                                 F               0         X-component position of node 45 (blade 2, node 16), m
        134    3.196E+01                                 F               0         Y-component position of node 45 (blade 2, node 16), m
        135    2.108E+02                                 F               0         Z-component position of node 45 (blade 2, node 16), m
        136    4.382E+01                                 F               0         X-component position of node 46 (blade 2, node 17), m
        137    3.399E+01                                 F               0         Y-component position of node 46 (blade 2, node 17), m
        138    2.140E+02                                 F               0         Z-component position of node 46 (blade 2, node 17), m
        139    4.470E+01                                 F               0         X-component position of node 47 (blade 2, node 18), m
        140    3.603E+01                                 F               0         Y-component position of node 47 (blade 2, node 18), m
        141    2.171E+02                                 F               0         Z-component position of node 47 (blade 2, node 18), m
        142    4.558E+01                                 F               0         X-component position of node 48 (blade 2, node 19), m
        143    3.807E+01                                 F               0         Y-component position of node 48 (blade 2, node 19), m
        144    2.203E+02                                 F               0         Z-component position of node 48 (blade 2, node 19), m
        145    4.646E+01                                 F               0         X-component position of node 49 (blade 2, node 20), m
        146    4.011E+01                                 F               0         Y-component position of node 49 (blade 2, node 20), m
        147    2.235E+02                                 F               0         Z-component position of node 49 (blade 2, node 20), m
        148    4.734E+01                                 F               0         X-component position of node 50 (blade 2, node 21), m
        149    4.215E+01                                 F               0         Y-component position of node 50 (blade 2, node 21), m
        150    2.266E+02                                 F               0         Z-component position of node 50 (blade 2, node 21), m
        151    4.822E+01                                 F               0         X-component position of node 51 (blade 2, node 22), m
        152    4.419E+01                                 F               0         Y-component position of node 51 (blade 2, node 22), m
        153    2.298E+02                                 F               0         Z-component position of node 51 (blade 2, node 22), m
        154    4.909E+01                                 F               0         X-component position of node 52 (blade 2, node 23), m
        155    4.623E+01                                 F               0         Y-component position of node 52 (blade 2, node 23), m
        156    2.330E+02                                 F               0         Z-component position of node 52 (blade 2, node 23), m
        157    4.997E+01                                 F               0         X-component position of node 53 (blade 2, node 24), m
        158    4.827E+01                                 F               0         Y-component position of node 53 (blade 2, node 24), m
        159    2.361E+02                                 F               0         Z-component position of node 53 (blade 2, node 24), m
        160    5.085E+01                                 F               0         X-component position of node 54 (blade 2, node 25), m
        161    5.031E+01                                 F               0         Y-component position of node 54 (blade 2, node 25), m
        162    2.393E+02                                 F               0         Z-component position of node 54 (blade 2, node 25), m
        163    5.173E+01                                 F               0         X-component position of node 55 (blade 2, node 26), m
        164    5.235E+01                                 F               0         Y-component position of node 55 (blade 2, node 26), m
        165    2.425E+02                                 F               0         Z-component position of node 55 (blade 2, node 26), m
        166    5.261E+01                                 F               0         X-component position of node 56 (blade 2, node 27), m
        167    5.438E+01                                 F               0         Y-component position of node 56 (blade 2, node 27), m
        168    2.456E+02                                 F               0         Z-component position of node 56 (blade 2, node 27), m
        169    5.335E+01                                 F               0         X-component position of node 57 (blade 2, node 28), m
        170    5.611E+01                                 F               0         Y-component position of node 57 (blade 2, node 28), m
        171    2.483E+02                                 F               0         Z-component position of node 57 (blade 2, node 28), m
        172    2.590E+01                                 F               0         X-component position of node 58 (blade 3, node 1), m
        173   -1.328E+01                                 F               0         Y-component position of node 58 (blade 3, node 1), m
        174    1.493E+02                                 F               0         Z-component position of node 58 (blade 3, node 1), m
        175    2.591E+01                                 F               0         X-component position of node 59 (blade 3, node 2), m
        176   -1.462E+01                                 F               0         Y-component position of node 59 (blade 3, node 2), m
        177    1.493E+02                                 F               0         Z-component position of node 59 (blade 3, node 2), m
        178    2.610E+01                                 F               0         X-component position of node 60 (blade 3, node 3), m
        179   -3.276E+01                                 F               0         Y-component position of node 60 (blade 3, node 3), m
        180    1.499E+02                                 F               0         Z-component position of node 60 (blade 3, node 3), m
        181    2.615E+01                                 F               0         X-component position of node 61 (blade 3, node 4), m
        182   -3.663E+01                                 F               0         Y-component position of node 61 (blade 3, node 4), m
        183    1.500E+02                                 F               0         Z-component position of node 61 (blade 3, node 4), m
        184    2.619E+01                                 F               0         X-component position of node 62 (blade 3, node 5), m
        185   -4.049E+01                                 F               0         Y-component position of node 62 (blade 3, node 5), m
        186    1.501E+02                                 F               0         Z-component position of node 62 (blade 3, node 5), m
        187    2.623E+01                                 F               0         X-component position of node 63 (blade 3, node 6), m
        188   -4.436E+01                                 F               0         Y-component position of node 63 (blade 3, node 6), m
        189    1.502E+02                                 F               0         Z-component position of node 63 (blade 3, node 6), m
        190    2.627E+01                                 F               0         X-component position of node 64 (blade 3, node 7), m
        191   -4.822E+01                                 F               0         Y-component position of node 64 (blade 3, node 7), m
        192    1.504E+02                                 F               0         Z-component position of node 64 (blade 3, node 7), m
        193    2.631E+01                                 F               0         X-component position of node 65 (blade 3, node 8), m
        194   -5.209E+01                                 F               0         Y-component position of node 65 (blade 3, node 8), m
        195    1.505E+02                                 F               0         Z-component position of node 65 (blade 3, node 8), m
        196    2.635E+01                                 F               0         X-component position of node 66 (blade 3, node 9), m
        197   -5.596E+01                                 F               0         Y-component position of node 66 (blade 3, node 9), m
        198    1.506E+02                                 F               0         Z-component position of node 66 (blade 3, node 9), m
        199    2.639E+01                                 F               0         X-component position of node 67 (blade 3, node 10), m
        200   -5.982E+01                                 F               0         Y-component position of node 67 (blade 3, node 10), m
        201    1.507E+02                                 F               0         Z-component position of node 67 (blade 3, node 10), m
        202    2.643E+01                                 F               0         X-component position of node 68 (blade 3, node 11), m
        203   -6.369E+01                                 F               0         Y-component position of node 68 (blade 3, node 11), m
        204    1.508E+02                                 F               0         Z-component position of node 68 (blade 3, node 11), m
        205    2.647E+01                                 F               0         X-component position of node 69 (blade 3, node 12), m
        206   -6.755E+01                                 F               0         Y-component position of node 69 (blade 3, node 12), m
        207    1.509E+02                                 F               0         Z-component position of node 69 (blade 3, node 12), m
        208    2.652E+01                                 F               0         X-component position of node 70 (blade 3, node 13), m
        209   -7.142E+01                                 F               0         Y-component position of node 70 (blade 3, node 13), m
        210    1.510E+02                                 F               0         Z-component position of node 70 (blade 3, node 13), m
        211    2.656E+01                                 F               0         X-component position of node 71 (blade 3, node 14), m