
Linearized model: Predictions were generated on 06-Feb-2024 at 16:18:08 using OpenFAST, compiled as a 64-bit application using single precision at commit v3.5.1
 linked with  NWTC Subroutine Library; ElastoDyn; InflowWind; AeroDyn; ServoDyn; HydroDyn; MAP++ (<1.20.10>, <Oct-20-2023>)

Description from the FAST input file: CCT-9 Campign 4 model. Input files to be run with OpenFAST 3.5.0. GitHub branch from Lu Wang (https://github.com/luwang00/openfast/tree/dev) compiled on March 7, 2023.

Simulation information:
   Simulation time:                  1004.2250 s
   Rotor Speed:                         1.0419 rad/s
   Azimuth:                             5.9030 rad
   Wind Speed:                         12.0000 m/s
   Number of continuous states:         0
   Number of discrete states:           0
   Number of constraint states:         0
   Number of inputs:                 1746
   Number of outputs:                   4
   Jacobians included in this file?    No

Order of inputs:
     Column   Operating Point                     Rotating Frame? Derivative Order Description
   ---------- ---------------                     --------------- ---------------- -----------
          1    1.513E+01                                 F               0         Tower X translation displacement, node 1, m
          2   -1.424E+00                                 F               0         Tower Y translation displacement, node 1, m
          3   -4.949E-01                                 F               0         Tower Z translation displacement, node 1, m
          4    1.704E+01                                 F               0         Tower X translation displacement, node 2, m
          5   -2.006E+00                                 F               0         Tower Y translation displacement, node 2, m
          6   -6.576E-01                                 F               0         Tower Z translation displacement, node 2, m
          7    1.899E+01                                 F               0         Tower X translation displacement, node 3, m
          8   -2.594E+00                                 F               0         Tower Y translation displacement, node 3, m
          9   -8.260E-01                                 F               0         Tower Z translation displacement, node 3, m
         10    2.096E+01                                 F               0         Tower X translation displacement, node 4, m
         11   -3.185E+00                                 F               0         Tower Y translation displacement, node 4, m
         12   -9.988E-01                                 F               0         Tower Z translation displacement, node 4, m
         13    2.296E+01                                 F               0         Tower X translation displacement, node 5, m
         14   -3.781E+00                                 F               0         Tower Y translation displacement, node 5, m
         15   -1.175E+00                                 F               0         Tower Z translation displacement, node 5, m
         16    2.497E+01                                 F               0         Tower X translation displacement, node 6, m
         17   -4.379E+00                                 F               0         Tower Y translation displacement, node 6, m
         18   -1.355E+00                                 F               0         Tower Z translation displacement, node 6, m
         19    2.699E+01                                 F               0         Tower X translation displacement, node 7, m
         20   -4.980E+00                                 F               0         Tower Y translation displacement, node 7, m
         21   -1.537E+00                                 F               0         Tower Z translation displacement, node 7, m
         22    2.903E+01                                 F               0         Tower X translation displacement, node 8, m
         23   -5.583E+00                                 F               0         Tower Y translation displacement, node 8, m
         24   -1.721E+00                                 F               0         Tower Z translation displacement, node 8, m
         25    3.108E+01                                 F               0         Tower X translation displacement, node 9, m
         26   -6.187E+00                                 F               0         Tower Y translation displacement, node 9, m
         27   -1.907E+00                                 F               0         Tower Z translation displacement, node 9, m
         28    3.313E+01                                 F               0         Tower X translation displacement, node 10, m
         29   -6.793E+00                                 F               0         Tower Y translation displacement, node 10, m
         30   -2.093E+00                                 F               0         Tower Z translation displacement, node 10, m
         31    3.518E+01                                 F               0         Tower X translation displacement, node 11, m
         32   -7.399E+00                                 F               0         Tower Y translation displacement, node 11, m
         33   -2.280E+00                                 F               0         Tower Z translation displacement, node 11, m
         34    9.881E-01, -3.530E-03, -1.540E-01         F               0         Tower X orientation angle, node 1, rad
         35    1.071E-02,  9.989E-01,  4.582E-02         F               0         Tower Y orientation angle, node 1, rad
         36    1.537E-01, -4.692E-02,  9.870E-01         F               0         Tower Z orientation angle, node 1, rad
         37    9.877E-01, -3.406E-03, -1.566E-01         F               0         Tower X orientation angle, node 2, rad
         38    1.077E-02,  9.989E-01,  4.622E-02         F               0         Tower Y orientation angle, node 2, rad
         39    1.562E-01, -4.734E-02,  9.866E-01         F               0         Tower Z orientation angle, node 2, rad
         40    9.873E-01, -3.295E-03, -1.589E-01         F               0         Tower X orientation angle, node 3, rad
         41    1.083E-02,  9.989E-01,  4.658E-02         F               0         Tower Y orientation angle, node 3, rad
         42    1.585E-01, -4.771E-02,  9.862E-01         F               0         Tower Z orientation angle, node 3, rad
         43    9.870E-01, -3.200E-03, -1.608E-01         F               0         Tower X orientation angle, node 4, rad
         44    1.088E-02,  9.988E-01,  4.689E-02         F               0         Tower Y orientation angle, node 4, rad
         45    1.605E-01, -4.803E-02,  9.859E-01         F               0         Tower Z orientation angle, node 4, rad
         46    9.867E-01, -3.121E-03, -1.625E-01         F               0         Tower X orientation angle, node 5, rad
         47    1.092E-02,  9.988E-01,  4.716E-02         F               0         Tower Y orientation angle, node 5, rad
         48    1.621E-01, -4.831E-02,  9.856E-01         F               0         Tower Z orientation angle, node 5, rad
         49    9.865E-01, -3.055E-03, -1.638E-01         F               0         Tower X orientation angle, node 6, rad
         50    1.096E-02,  9.988E-01,  4.738E-02         F               0         Tower Y orientation angle, node 6, rad
         51    1.634E-01, -4.854E-02,  9.854E-01         F               0         Tower Z orientation angle, node 6, rad
         52    9.863E-01, -3.005E-03, -1.648E-01         F               0         Tower X orientation angle, node 7, rad
         53    1.099E-02,  9.988E-01,  4.756E-02         F               0         Tower Y orientation angle, node 7, rad
         54    1.645E-01, -4.872E-02,  9.852E-01         F               0         Tower Z orientation angle, node 7, rad
         55    9.862E-01, -2.967E-03, -1.656E-01         F               0         Tower X orientation angle, node 8, rad
         56    1.101E-02,  9.988E-01,  4.770E-02         F               0         Tower Y orientation angle, node 8, rad
         57    1.652E-01, -4.887E-02,  9.850E-01         F               0         Tower Z orientation angle, node 8, rad
         58    9.861E-01, -2.940E-03, -1.661E-01         F               0         Tower X orientation angle, node 9, rad
         59    1.103E-02,  9.988E-01,  4.780E-02         F               0         Tower Y orientation angle, node 9, rad
         60    1.658E-01, -4.897E-02,  9.849E-01         F               0         Tower Z orientation angle, node 9, rad
         61    9.860E-01, -2.923E-03, -1.665E-01         F               0         Tower X orientation angle, node 10, rad
         62    1.104E-02,  9.988E-01,  4.787E-02         F               0         Tower Y orientation angle, node 10, rad
         63    1.661E-01, -4.904E-02,  9.849E-01         F               0         Tower Z orientation angle, node 10, rad
         64    9.860E-01, -2.914E-03, -1.666E-01         F               0         Tower X orientation angle, node 11, rad
         65    1.105E-02,  9.988E-01,  4.791E-02         F               0         Tower Y orientation angle, node 11, rad
         66    1.663E-01, -4.908E-02,  9.849E-01         F               0         Tower Z orientation angle, node 11, rad
         67   -3.142E-04                                 F               0         Tower X translation velocity, node 1, m/s
         68    6.696E-05                                 F               0         Tower Y translation velocity, node 1, m/s
         69    2.102E-03                                 F               0         Tower Z translation velocity, node 1, m/s
         70   -4.218E-04                                 F               0         Tower X translation velocity, node 2, m/s
         71    1.149E-04                                 F               0         Tower Y translation velocity, node 2, m/s
         72    2.121E-03                                 F               0         Tower Z translation velocity, node 2, m/s
         73   -4.896E-04                                 F               0         Tower X translation velocity, node 3, m/s
         74    1.695E-04                                 F               0         Tower Y translation velocity, node 3, m/s
         75    2.135E-03                                 F               0         Tower Z translation velocity, node 3, m/s
         76   -5.241E-04                                 F               0         Tower X translation velocity, node 4, m/s
         77    2.284E-04                                 F               0         Tower Y translation velocity, node 4, m/s
         78    2.143E-03                                 F               0         Tower Z translation velocity, node 4, m/s
         79   -5.282E-04                                 F               0         Tower X translation velocity, node 5, m/s
         80    2.899E-04                                 F               0         Tower Y translation velocity, node 5, m/s
         81    2.147E-03                                 F               0         Tower Z translation velocity, node 5, m/s
         82   -5.049E-04                                 F               0         Tower X translation velocity, node 6, m/s
         83    3.528E-04                                 F               0         Tower Y translation velocity, node 6, m/s
         84    2.146E-03                                 F               0         Tower Z translation velocity, node 6, m/s
         85   -4.593E-04                                 F               0         Tower X translation velocity, node 7, m/s
         86    4.160E-04                                 F               0         Tower Y translation velocity, node 7, m/s
         87    2.142E-03                                 F               0         Tower Z translation velocity, node 7, m/s
         88   -3.928E-04                                 F               0         Tower X translation velocity, node 8, m/s
         89    4.788E-04                                 F               0         Tower Y translation velocity, node 8, m/s
         90    2.134E-03                                 F               0         Tower Z translation velocity, node 8, m/s
         91   -3.096E-04                                 F               0         Tower X translation velocity, node 9, m/s
         92    5.409E-04                                 F               0         Tower Y translation velocity, node 9, m/s
         93    2.123E-03                                 F               0         Tower Z translation velocity, node 9, m/s
         94   -2.140E-04                                 F               0         Tower X translation velocity, node 10, m/s
         95    6.021E-04                                 F               0         Tower Y translation velocity, node 10, m/s
         96    2.110E-03                                 F               0         Tower Z translation velocity, node 10, m/s
         97   -1.104E-04                                 F               0         Tower X translation velocity, node 11, m/s
         98    6.627E-04                                 F               0         Tower Y translation velocity, node 11, m/s
         99    2.095E-03                                 F               0         Tower Z translation velocity, node 11, m/s
        100    3.664E+01                                 F               0         Hub X translation displacement, node 1, m
        101   -7.753E+00                                 F               0         Hub Y translation displacement, node 1, m
        102   -5.992E-01                                 F               0         Hub Z translation displacement, node 1, m
        103    9.632E-01,  2.232E-03, -2.687E-01         F               0         Hub X orientation angle, node 1, rad
        104   -8.937E-02,  9.457E-01, -3.126E-01         F               0         Hub Y orientation angle, node 1, rad
        105    2.534E-01,  3.251E-01,  9.111E-01         F               0         Hub Z orientation angle, node 1, rad
        106    1.004E+00                                 F               0         Hub X rotation velocity, node 1, rad/s
        107    2.334E-03                                 F               0         Hub Y rotation velocity, node 1, rad/s
        108   -2.799E-01                                 F               0         Hub Z rotation velocity, node 1, rad/s
        109    9.655E-01, -2.582E-02, -2.593E-01         F               0         Blade root 1 X orientation angle, node 1, rad
        110   -6.075E-02,  9.453E-01, -3.204E-01         F               0         Blade root 1 Y orientation angle, node 1, rad
        111    2.534E-01,  3.251E-01,  9.111E-01         F               0         Blade root 1 Z orientation angle, node 1, rad
        112    9.550E-01,  7.906E-03, -2.966E-01         F               0         Blade root 2 X orientation angle, node 1, rad
        113    2.926E-01, -1.912E-01,  9.369E-01         F               0         Blade root 2 Y orientation angle, node 1, rad
        114   -4.929E-02, -9.815E-01, -1.849E-01         F               0         Blade root 2 Z orientation angle, node 1, rad
        115    9.680E-01,  2.461E-02, -2.498E-01         F               0         Blade root 3 X orientation angle, node 1, rad
        116   -1.461E-01, -7.540E-01, -6.405E-01         F               0         Blade root 3 Y orientation angle, node 1, rad
        117   -2.041E-01,  6.564E-01, -7.262E-01         F               0         Blade root 3 Z orientation angle, node 1, rad
        118    3.746E+01                                 F               0         Blade 1 X translation displacement, node 1, m
        119   -5.952E+00                                 F               0         Blade 1 Y translation displacement, node 1, m
        120   -1.061E+00                                 F               0         Blade 1 Z translation displacement, node 1, m
        121    3.766E+01                                 F               0         Blade 1 X translation displacement, node 2, m
        122   -5.518E+00                                 F               0         Blade 1 Y translation displacement, node 2, m
        123   -1.173E+00                                 F               0         Blade 1 Z translation displacement, node 2, m
        124    4.036E+01                                 F               0         Blade 1 X translation displacement, node 3, m
        125    3.830E-01                                 F               0         Blade 1 Y translation displacement, node 3, m
        126   -2.687E+00                                 F               0         Blade 1 Z translation displacement, node 3, m
        127    4.094E+01                                 F               0         Blade 1 X translation displacement, node 4, m
        128    1.640E+00                                 F               0         Blade 1 Y translation displacement, node 4, m
        129   -3.009E+00                                 F               0         Blade 1 Z translation displacement, node 4, m
        130    4.151E+01                                 F               0         Blade 1 X translation displacement, node 5, m
        131    2.898E+00                                 F               0         Blade 1 Y translation displacement, node 5, m
        132   -3.332E+00                                 F               0         Blade 1 Z translation displacement, node 5, m
        133    4.209E+01                                 F               0         Blade 1 X translation displacement, node 6, m
        134    4.155E+00                                 F               0         Blade 1 Y translation displacement, node 6, m
        135   -3.654E+00                                 F               0         Blade 1 Z translation displacement, node 6, m
        136    4.266E+01                                 F               0         Blade 1 X translation displacement, node 7, m
        137    5.412E+00                                 F               0         Blade 1 Y translation displacement, node 7, m
        138   -3.977E+00                                 F               0         Blade 1 Z translation displacement, node 7, m
        139    4.324E+01                                 F               0         Blade 1 X translation displacement, node 8, m
        140    6.670E+00                                 F               0         Blade 1 Y translation displacement, node 8, m
        141   -4.300E+00                                 F               0         Blade 1 Z translation displacement, node 8, m
        142    4.382E+01                                 F               0         Blade 1 X translation displacement, node 9, m
        143    7.927E+00                                 F               0         Blade 1 Y translation displacement, node 9, m
        144   -4.622E+00                                 F               0         Blade 1 Z translation displacement, node 9, m
        145    4.439E+01                                 F               0         Blade 1 X translation displacement, node 10, m
        146    9.184E+00                                 F               0         Blade 1 Y translation displacement, node 10, m
        147   -4.945E+00                                 F               0         Blade 1 Z translation displacement, node 10, m
        148    4.497E+01                                 F               0         Blade 1 X translation displacement, node 11, m
        149    1.044E+01                                 F               0         Blade 1 Y translation displacement, node 11, m
        150   -5.267E+00                                 F               0         Blade 1 Z translation displacement, node 11, m
        151    4.554E+01                                 F               0         Blade 1 X translation displacement, node 12, m
        152    1.170E+01                                 F               0         Blade 1 Y translation displacement, node 12, m
        153   -5.590E+00                                 F               0         Blade 1 Z translation displacement, node 12, m
        154    4.612E+01                                 F               0         Blade 1 X translation displacement, node 13, m
        155    1.296E+01                                 F               0         Blade 1 Y translation displacement, node 13, m
        156   -5.913E+00                                 F               0         Blade 1 Z translation displacement, node 13, m
        157    4.669E+01                                 F               0         Blade 1 X translation displacement, node 14, m
        158    1.421E+01                                 F               0         Blade 1 Y translation displacement, node 14, m
        159   -6.235E+00                                 F               0         Blade 1 Z translation displacement, node 14, m
        160    4.727E+01                                 F               0         Blade 1 X translation displacement, node 15, m
        161    1.547E+01                                 F               0         Blade 1 Y translation displacement, node 15, m
        162   -6.558E+00                                 F               0         Blade 1 Z translation displacement, node 15, m
        163    4.785E+01                                 F               0         Blade 1 X translation displacement, node 16, m
        164    1.673E+01                                 F               0         Blade 1 Y translation displacement, node 16, m
        165   -6.881E+00                                 F               0         Blade 1 Z translation displacement, node 16, m
        166    4.842E+01                                 F               0         Blade 1 X translation displacement, node 17, m
        167    1.799E+01                                 F               0         Blade 1 Y translation displacement, node 17, m
        168   -7.203E+00                                 F               0         Blade 1 Z translation displacement, node 17, m
        169    4.900E+01                                 F               0         Blade 1 X translation displacement, node 18, m
        170    1.924E+01                                 F               0         Blade 1 Y translation displacement, node 18, m
        171   -7.526E+00                                 F               0         Blade 1 Z translation displacement, node 18, m
        172    4.957E+01                                 F               0         Blade 1 X translation displacement, node 19, m
        173    2.050E+01                                 F               0         Blade 1 Y translation displacement, node 19, m
        174   -7.848E+00                                 F               0         Blade 1 Z translation displacement, node 19, m
        175    5.015E+01                                 F               0         Blade 1 X translation displacement, node 20, m
        176    2.176E+01                                 F               0         Blade 1 Y translation displacement, node 20, m
        177   -8.171E+00                                 F               0         Blade 1 Z translation displacement, node 20, m
        178    5.072E+01                                 F               0         Blade 1 X translation displacement, node 21, m
        179    2.301E+01                                 F               0         Blade 1 Y translation displacement, node 21, m
        180   -8.493E+00                                 F               0         Blade 1 Z translation displacement, node 21, m
        181    5.130E+01                                 F               0         Blade 1 X translation displacement, node 22, m
        182    2.427E+01                                 F               0         Blade 1 Y translation displacement, node 22, m
        183   -8.816E+00                                 F               0         Blade 1 Z translation displacement, node 22, m
        184    5.188E+01                                 F               0         Blade 1 X translation displacement, node 23, m
        185    2.553E+01                                 F               0         Blade 1 Y translation displacement, node 23, m
        186   -9.139E+00                                 F               0         Blade 1 Z translation displacement, node 23, m
        187    5.245E+01                                 F               0         Blade 1 X translation displacement, node 24, m
        188    2.679E+01                                 F               0         Blade 1 Y translation displacement, node 24, m
        189   -9.461E+00                                 F               0         Blade 1 Z translation displacement, node 24, m
        190    5.303E+01                                 F               0         Blade 1 X translation displacement, node 25, m
        191    2.804E+01                                 F               0         Blade 1 Y translation displacement, node 25, m
        192   -9.784E+00                                 F               0         Blade 1 Z translation displacement, node 25, m
        193    5.360E+01                                 F               0         Blade 1 X translation displacement, node 26, m
        194    2.930E+01                                 F               0         Blade 1 Y translation displacement, node 26, m
        195   -1.011E+01                                 F               0         Blade 1 Z translation displacement, node 26, m
        196    5.418E+01                                 F               0         Blade 1 X translation displacement, node 27, m
        197    3.056E+01                                 F               0         Blade 1 Y translation displacement, node 27, m
        198   -1.043E+01                                 F               0         Blade 1 Z translation displacement, node 27, m
        199    5.467E+01                                 F               0         Blade 1 X translation displacement, node 28, m
        200    3.162E+01                                 F               0         Blade 1 Y translation displacement, node 28, m
        201   -1.070E+01                                 F               0         Blade 1 Z translation displacement, node 28, m
        202    8.869E-01, -4.541E-01, -8.464E-02         F               0         Blade 1 X orientation angle, node 1, rad
        203    3.862E-01,  8.295E-01, -4.034E-01         F               0         Blade 1 Y orientation angle, node 1, rad
        204    2.534E-01,  3.251E-01,  9.111E-01         F               0         Blade 1 Z orientation angle, node 1, rad
        205    8.869E-01, -4.541E-01, -8.464E-02         F               0         Blade 1 X orientation angle, node 2, rad
        206    3.862E-01,  8.295E-01, -4.034E-01         F               0         Blade 1 Y orientation angle, node 2, rad
        207    2.534E-01,  3.251E-01,  9.111E-01         F               0         Blade 1 Z orientation angle, node 2, rad
        208    9.532E-01, -2.445E-01, -1.778E-01         F               0         Blade 1 X orientation angle, node 3, rad
        209    1.650E-01,  9.135E-01, -3.718E-01         F               0         Blade 1 Y orientation angle, node 3, rad
        210    2.534E-01,  3.251E-01,  9.111E-01         F               0         Blade 1 Z orientation angle, node 3, rad
        211    9.593E-01, -2.057E-01, -1.934E-01         F               0         Blade 1 X orientation angle, node 4, rad
        212    1.246E-01,  9.230E-01, -3.640E-01         F               0         Blade 1 Y orientation angle, node 4, rad
        213    2.534E-01,  3.251E-01,  9.111E-01         F               0         Blade 1 Z orientation angle, node 4, rad
        214    9.629E-01, -1.750E-01, -2.053E-01         F               0         Blade 1 X orientation angle, node 5, rad
        215    9.270E-02,  9.294E-01, -3.574E-01         F               0         Blade 1 Y orientation angle, node 5, rad
        216    2.534E-01,  3.251E-01,  9.111E-01         F               0         Blade 1 Z orientation angle, node 5, rad
        217    9.650E-01, -1.503E-01, -2.147E-01         F               0         Blade 1 X orientation angle, node 6, rad
        218    6.713E-02,  9.337E-01, -3.518E-01         F               0         Blade 1 Y orientation angle, node 6, rad
        219    2.534E-01,  3.251E-01,  9.111E-01         F               0         Blade 1 Z orientation angle, node 6, rad
        220    9.663E-01, -1.299E-01, -2.224E-01         F               0         Blade 1 X orientation angle, node 7, rad
        221    4.606E-02,  9.367E-01, -3.470E-01         F               0         Blade 1 Y orientation angle, node 7, rad
        222    2.534E-01,  3.251E-01,  9.111E-01         F               0         Blade 1 Z orientation angle, node 7, rad
        223    9.669E-01, -1.129E-01, -2.286E-01         F               0         Blade 1 X orientation angle, node 8, rad
        224    2.852E-02,  9.389E-01, -3.429E-01         F               0         Blade 1 Y orientation angle, node 8, rad
        225    2.534E-01,  3.251E-01,  9.111E-01         F               0         Blade 1 Z orientation angle, node 8, rad
        226    9.673E-01, -9.844E-02, -2.339E-01         F               0         Blade 1 X orientation angle, node 9, rad
        227    1.366E-02,  9.406E-01, -3.394E-01         F               0         Blade 1 Y orientation angle, node 9, rad