
Linearized model: Predictions were generated on 31-Jan-2024 at 12:35:17 using OpenFAST, compiled as a 64-bit application using single precision at commit v3.5.1
 linked with  NWTC Subroutine Library; ElastoDyn; InflowWind; AeroDyn; ServoDyn; HydroDyn; MAP++ (<1.20.10>, <Oct-20-2023>)

Description from the FAST input file: CCT-9 Campign 4 model. Input files to be run with OpenFAST 3.5.0. GitHub branch from Lu Wang (https://github.com/luwang00/openfast/tree/dev) compiled on March 7, 2023.

Simulation information:
   Simulation time:                   501.5000 s
   Rotor Speed:                         0.8936 rad/s
   Azimuth:                             2.0866 rad
   Wind Speed:                         10.0000 m/s
   Number of continuous states:        12
   Number of discrete states:           0
   Number of constraint states:         0
   Number of inputs:                 1890
   Number of outputs:                  19
   Jacobians included in this file?    No

Order of continuous states:
   Row/Column Operating Point                     Rotating Frame? Derivative Order Description
   ---------- ---------------                     --------------- ---------------- -----------
          1    8.172E+00                                 F               2         Platform horizontal surge translation DOF (internal DOF index = DOF_Sg), m
          2   -5.155E-02                                 F               2         Platform vertical heave translation DOF (internal DOF index = DOF_Hv), m
          3    7.091E-03                                 F               2         Platform yaw rotation DOF (internal DOF index = DOF_Y), rad
          4    3.854E-01                                 F               2         1st tower fore-aft bending mode DOF (internal DOF index = DOF_TFA1), m
          5    1.285E-03                                 F               2         2nd tower fore-aft bending mode DOF (internal DOF index = DOF_TFA2), m
          6    5.158E-01                                 F               2         Variable speed generator DOF (internal DOF index = DOF_GeAz), rad
          7   -3.484E-04                                 F               2         First time derivative of Platform horizontal surge translation DOF (internal DOF index = DOF_Sg), m/s
          8   -2.394E-03                                 F               2         First time derivative of Platform vertical heave translation DOF (internal DOF index = DOF_Hv), m/s
          9   -4.567E-08                                 F               2         First time derivative of Platform yaw rotation DOF (internal DOF index = DOF_Y), rad/s
         10   -5.140E-04                                 F               2         First time derivative of 1st tower fore-aft bending mode DOF (internal DOF index = DOF_TFA1), m/s
         11    4.040E-06                                 F               2         First time derivative of 2nd tower fore-aft bending mode DOF (internal DOF index = DOF_TFA2), m/s
         12    8.936E-01                                 F               2         First time derivative of Variable speed generator DOF (internal DOF index = DOF_GeAz), rad/s

Order of continuous state derivatives:
   Row/Column Operating Point                     Rotating Frame? Derivative Order Description
   ---------- ---------------                     --------------- ---------------- -----------
          1   -3.484E-04                                 F               2         First time derivative of Platform horizontal surge translation DOF (internal DOF index = DOF_Sg), m/s
          2   -2.394E-03                                 F               2         First time derivative of Platform vertical heave translation DOF (internal DOF index = DOF_Hv), m/s
          3   -4.567E-08                                 F               2         First time derivative of Platform yaw rotation DOF (internal DOF index = DOF_Y), rad/s
          4   -5.140E-04                                 F               2         First time derivative of 1st tower fore-aft bending mode DOF (internal DOF index = DOF_TFA1), m/s
          5    4.040E-06                                 F               2         First time derivative of 2nd tower fore-aft bending mode DOF (internal DOF index = DOF_TFA2), m/s
          6    8.936E-01                                 F               2         First time derivative of Variable speed generator DOF (internal DOF index = DOF_GeAz), rad/s
          7   -3.650E-04                                 F               2         First time derivative of First time derivative of Platform horizontal surge translation DOF (internal DOF index = DOF_Sg), m/s/s
          8   -2.262E-03                                 F               2         First time derivative of First time derivative of Platform vertical heave translation DOF (internal DOF index = DOF_Hv), m/s/s
          9    3.627E-06                                 F               2         First time derivative of First time derivative of Platform yaw rotation DOF (internal DOF index = DOF_Y), rad/s/s
         10   -4.622E-04                                 F               2         First time derivative of First time derivative of 1st tower fore-aft bending mode DOF (internal DOF index = DOF_TFA1), m/s/s
         11    8.720E-06                                 F               2         First time derivative of First time derivative of 2nd tower fore-aft bending mode DOF (internal DOF index = DOF_TFA2), m/s/s
         12    1.800E-04                                 F               2         First time derivative of First time derivative of Variable speed generator DOF (internal DOF index = DOF_GeAz), rad/s/s

Order of inputs:
     Column   Operating Point                     Rotating Frame? Derivative Order Description
   ---------- ---------------                     --------------- ---------------- -----------
          1    9.066E+01                                 F               0         Blade 1 X force, node 1, N
          2   -5.725E+01                                 F               0         Blade 1 Y force, node 1, N
          3    8.243E+01                                 F               0         Blade 1 Z force, node 1, N
          4    3.524E+02                                 F               0         Blade 1 X force, node 2, N
          5   -1.000E+02                                 F               0         Blade 1 Y force, node 2, N
          6    1.230E+02                                 F               0         Blade 1 Z force, node 2, N
          7    4.367E+02                                 F               0         Blade 1 X force, node 3, N
          8   -6.423E+01                                 F               0         Blade 1 Y force, node 3, N
          9    5.618E+01                                 F               0         Blade 1 Z force, node 3, N
         10    5.590E+02                                 F               0         Blade 1 X force, node 4, N
         11   -4.125E+01                                 F               0         Blade 1 Y force, node 4, N
         12    5.902E+00                                 F               0         Blade 1 Z force, node 4, N
         13    6.812E+02                                 F               0         Blade 1 X force, node 5, N
         14   -1.827E+01                                 F               0         Blade 1 Y force, node 5, N
         15   -4.438E+01                                 F               0         Blade 1 Z force, node 5, N
         16    8.034E+02                                 F               0         Blade 1 X force, node 6, N
         17    4.708E+00                                 F               0         Blade 1 Y force, node 6, N
         18   -9.466E+01                                 F               0         Blade 1 Z force, node 6, N
         19    9.257E+02                                 F               0         Blade 1 X force, node 7, N
         20    2.769E+01                                 F               0         Blade 1 Y force, node 7, N
         21   -1.449E+02                                 F               0         Blade 1 Z force, node 7, N
         22    1.048E+03                                 F               0         Blade 1 X force, node 8, N
         23    5.067E+01                                 F               0         Blade 1 Y force, node 8, N
         24   -1.952E+02                                 F               0         Blade 1 Z force, node 8, N
         25    1.170E+03                                 F               0         Blade 1 X force, node 9, N
         26    7.365E+01                                 F               0         Blade 1 Y force, node 9, N
         27   -2.455E+02                                 F               0         Blade 1 Z force, node 9, N
         28    1.292E+03                                 F               0         Blade 1 X force, node 10, N
         29    9.663E+01                                 F               0         Blade 1 Y force, node 10, N
         30   -2.958E+02                                 F               0         Blade 1 Z force, node 10, N
         31    1.415E+03                                 F               0         Blade 1 X force, node 11, N
         32    1.196E+02                                 F               0         Blade 1 Y force, node 11, N
         33   -3.461E+02                                 F               0         Blade 1 Z force, node 11, N
         34    1.537E+03                                 F               0         Blade 1 X force, node 12, N
         35    1.426E+02                                 F               0         Blade 1 Y force, node 12, N
         36   -3.964E+02                                 F               0         Blade 1 Z force, node 12, N
         37    1.659E+03                                 F               0         Blade 1 X force, node 13, N
         38    1.656E+02                                 F               0         Blade 1 Y force, node 13, N
         39   -4.466E+02                                 F               0         Blade 1 Z force, node 13, N
         40    1.781E+03                                 F               0         Blade 1 X force, node 14, N
         41    1.886E+02                                 F               0         Blade 1 Y force, node 14, N
         42   -4.969E+02                                 F               0         Blade 1 Z force, node 14, N
         43    1.903E+03                                 F               0         Blade 1 X force, node 15, N
         44    2.115E+02                                 F               0         Blade 1 Y force, node 15, N
         45   -5.472E+02                                 F               0         Blade 1 Z force, node 15, N
         46    2.026E+03                                 F               0         Blade 1 X force, node 16, N
         47    2.345E+02                                 F               0         Blade 1 Y force, node 16, N
         48   -5.975E+02                                 F               0         Blade 1 Z force, node 16, N
         49    2.493E+03                                 F               0         Blade 1 X force, node 17, N
         50    2.976E+02                                 F               0         Blade 1 Y force, node 17, N
         51   -7.499E+02                                 F               0         Blade 1 Z force, node 17, N
         52    1.923E+03                                 F               0         Blade 1 X force, node 18, N
         53    2.228E+02                                 F               0         Blade 1 Y force, node 18, N
         54   -5.675E+02                                 F               0         Blade 1 Z force, node 18, N
         55    2.387E+03                                 F               0         Blade 1 X force, node 19, N
         56    2.639E+02                                 F               0         Blade 1 Y force, node 19, N
         57   -6.840E+02                                 F               0         Blade 1 Z force, node 19, N
         58    2.057E+03                                 F               0         Blade 1 X force, node 20, N
         59    2.175E+02                                 F               0         Blade 1 Y force, node 20, N
         60   -5.735E+02                                 F               0         Blade 1 Z force, node 20, N
         61    3.074E+03                                 F               0         Blade 1 X force, node 21, N
         62    3.085E+02                                 F               0         Blade 1 Y force, node 21, N
         63   -8.303E+02                                 F               0         Blade 1 Z force, node 21, N
         64    2.744E+03                                 F               0         Blade 1 X force, node 22, N
         65    2.611E+02                                 F               0         Blade 1 Y force, node 22, N
         66   -7.181E+02                                 F               0         Blade 1 Z force, node 22, N
         67    2.845E+03                                 F               0         Blade 1 X force, node 23, N
         68    2.581E+02                                 F               0         Blade 1 Y force, node 23, N
         69   -7.243E+02                                 F               0         Blade 1 Z force, node 23, N
         70    2.998E+03                                 F               0         Blade 1 X force, node 24, N
         71    2.594E+02                                 F               0         Blade 1 Y force, node 24, N
         72   -7.430E+02                                 F               0         Blade 1 Z force, node 24, N
         73    3.098E+03                                 F               0         Blade 1 X force, node 25, N
         74    2.557E+02                                 F               0         Blade 1 Y force, node 25, N
         75   -7.479E+02                                 F               0         Blade 1 Z force, node 25, N
         76    3.215E+03                                 F               0         Blade 1 X force, node 26, N
         77    2.534E+02                                 F               0         Blade 1 Y force, node 26, N
         78   -7.569E+02                                 F               0         Blade 1 Z force, node 26, N
         79    3.883E+03                                 F               0         Blade 1 X force, node 27, N
         80    2.917E+02                                 F               0         Blade 1 Y force, node 27, N
         81   -8.909E+02                                 F               0         Blade 1 Z force, node 27, N
         82    2.899E+03                                 F               0         Blade 1 X force, node 28, N
         83    2.078E+02                                 F               0         Blade 1 Y force, node 28, N
         84   -6.491E+02                                 F               0         Blade 1 Z force, node 28, N
         85    3.566E+03                                 F               0         Blade 1 X force, node 29, N
         86    2.457E+02                                 F               0         Blade 1 Y force, node 29, N
         87   -7.825E+02                                 F               0         Blade 1 Z force, node 29, N
         88    3.050E+03                                 F               0         Blade 1 X force, node 30, N
         89    2.022E+02                                 F               0         Blade 1 Y force, node 30, N
         90   -6.564E+02                                 F               0         Blade 1 Z force, node 30, N
         91    4.433E+03                                 F               0         Blade 1 X force, node 31, N
         92    2.808E+02                                 F               0         Blade 1 Y force, node 31, N
         93   -9.330E+02                                 F               0         Blade 1 Z force, node 31, N
         94    3.915E+03                                 F               0         Blade 1 X force, node 32, N
         95    2.369E+02                                 F               0         Blade 1 Y force, node 32, N
         96   -8.061E+02                                 F               0         Blade 1 Z force, node 32, N
         97    4.031E+03                                 F               0         Blade 1 X force, node 33, N
         98    2.336E+02                                 F               0         Blade 1 Y force, node 33, N
         99   -8.134E+02                                 F               0         Blade 1 Z force, node 33, N
        100    4.147E+03                                 F               0         Blade 1 X force, node 34, N
        101    2.304E+02                                 F               0         Blade 1 Y force, node 34, N
        102   -8.208E+02                                 F               0         Blade 1 Z force, node 34, N
        103    4.263E+03                                 F               0         Blade 1 X force, node 35, N
        104    2.271E+02                                 F               0         Blade 1 Y force, node 35, N
        105   -8.280E+02                                 F               0         Blade 1 Z force, node 35, N
        106    4.378E+03                                 F               0         Blade 1 X force, node 36, N
        107    2.236E+02                                 F               0         Blade 1 Y force, node 36, N
        108   -8.348E+02                                 F               0         Blade 1 Z force, node 36, N
        109    5.258E+03                                 F               0         Blade 1 X force, node 37, N
        110    2.570E+02                                 F               0         Blade 1 Y force, node 37, N
        111   -9.840E+02                                 F               0         Blade 1 Z force, node 37, N
        112    3.844E+03                                 F               0         Blade 1 X force, node 38, N
        113    1.799E+02                                 F               0         Blade 1 Y force, node 38, N
        114   -7.065E+02                                 F               0         Blade 1 Z force, node 38, N
        115    4.726E+03                                 F               0         Blade 1 X force, node 39, N
        116    2.131E+02                                 F               0         Blade 1 Y force, node 39, N
        117   -8.556E+02                                 F               0         Blade 1 Z force, node 39, N
        118    4.041E+03                                 F               0         Blade 1 X force, node 40, N
        119    1.757E+02                                 F               0         Blade 1 Y force, node 40, N
        120   -7.211E+02                                 F               0         Blade 1 Z force, node 40, N
        121    5.758E+03                                 F               0         Blade 1 X force, node 41, N
        122    2.398E+02                                 F               0         Blade 1 Y force, node 41, N
        123   -1.011E+03                                 F               0         Blade 1 Z force, node 41, N
        124    5.072E+03                                 F               0         Blade 1 X force, node 42, N
        125    2.021E+02                                 F               0         Blade 1 Y force, node 42, N
        126   -8.754E+02                                 F               0         Blade 1 Z force, node 42, N
        127    5.186E+03                                 F               0         Blade 1 X force, node 43, N
        128    1.983E+02                                 F               0         Blade 1 Y force, node 43, N
        129   -8.816E+02                                 F               0         Blade 1 Z force, node 43, N
        130    5.328E+03                                 F               0         Blade 1 X force, node 44, N
        131    1.954E+02                                 F               0         Blade 1 Y force, node 44, N
        132   -8.924E+02                                 F               0         Blade 1 Z force, node 44, N
        133    5.386E+03                                 F               0         Blade 1 X force, node 45, N
        134    1.895E+02                                 F               0         Blade 1 Y force, node 45, N
        135   -8.891E+02                                 F               0         Blade 1 Z force, node 45, N
        136    5.528E+03                                 F               0         Blade 1 X force, node 46, N
        137    1.866E+02                                 F               0         Blade 1 Y force, node 46, N
        138   -8.999E+02                                 F               0         Blade 1 Z force, node 46, N
        139    6.633E+03                                 F               0         Blade 1 X force, node 47, N
        140    2.141E+02                                 F               0         Blade 1 Y force, node 47, N
        141   -1.064E+03                                 F               0         Blade 1 Z force, node 47, N
        142    4.765E+03                                 F               0         Blade 1 X force, node 48, N
        143    1.472E+02                                 F               0         Blade 1 Y force, node 48, N
        144   -7.536E+02                                 F               0         Blade 1 Z force, node 48, N
        145    5.869E+03                                 F               0         Blade 1 X force, node 49, N
        146    1.746E+02                                 F               0         Blade 1 Y force, node 49, N
        147   -9.175E+02                                 F               0         Blade 1 Z force, node 49, N
        148    5.030E+03                                 F               0         Blade 1 X force, node 50, N
        149    1.440E+02                                 F               0         Blade 1 Y force, node 50, N
        150   -7.773E+02                                 F               0         Blade 1 Z force, node 50, N
        151    7.049E+03                                 F               0         Blade 1 X force, node 51, N
        152    1.930E+02                                 F               0         Blade 1 Y force, node 51, N
        153   -1.075E+03                                 F               0         Blade 1 Z force, node 51, N
        154    6.211E+03                                 F               0         Blade 1 X force, node 52, N
        155    1.625E+02                                 F               0         Blade 1 Y force, node 52, N
        156   -9.350E+02                                 F               0         Blade 1 Z force, node 52, N
        157    6.326E+03                                 F               0         Blade 1 X force, node 53, N
        158    1.584E+02                                 F               0         Blade 1 Y force, node 53, N
        159   -9.410E+02                                 F               0         Blade 1 Z force, node 53, N
        160    6.512E+03                                 F               0         Blade 1 X force, node 54, N
        161    1.561E+02                                 F               0         Blade 1 Y force, node 54, N
        162   -9.573E+02                                 F               0         Blade 1 Z force, node 54, N
        163    6.484E+03                                 F               0         Blade 1 X force, node 55, N
        164    1.486E+02                                 F               0         Blade 1 Y force, node 55, N
        165   -9.422E+02                                 F               0         Blade 1 Z force, node 55, N
        166    6.669E+03                                 F               0         Blade 1 X force, node 56, N
        167    1.461E+02                                 F               0         Blade 1 Y force, node 56, N
        168   -9.583E+02                                 F               0         Blade 1 Z force, node 56, N
        169    8.011E+03                                 F               0         Blade 1 X force, node 57, N
        170    1.672E+02                                 F               0         Blade 1 Y force, node 57, N
        171   -1.138E+03                                 F               0         Blade 1 Z force, node 57, N
        172    5.669E+03                                 F               0         Blade 1 X force, node 58, N
        173    1.126E+02                                 F               0         Blade 1 Y force, node 58, N
        174   -7.959E+02                                 F               0         Blade 1 Z force, node 58, N
        175    7.011E+03                                 F               0         Blade 1 X force, node 59, N
        176    1.336E+02                                 F               0         Blade 1 Y force, node 59, N
        177   -9.752E+02                                 F               0         Blade 1 Z force, node 59, N
        178    6.034E+03                                 F               0         Blade 1 X force, node 60, N
        179    1.101E+02                                 F               0         Blade 1 Y force, node 60, N
        180   -8.314E+02                                 F               0         Blade 1 Z force, node 60, N
        181    8.330E+03                                 F               0         Blade 1 X force, node 61, N
        182    1.445E+02                                 F               0         Blade 1 Y force, node 61, N
        183   -1.136E+03                                 F               0         Blade 1 Z force, node 61, N
        184    7.350E+03                                 F               0         Blade 1 X force, node 62, N
        185    1.208E+02                                 F               0         Blade 1 Y force, node 62, N
        186   -9.913E+02                                 F               0         Blade 1 Z force, node 62, N
        187    7.461E+03                                 F               0         Blade 1 X force, node 63, N
        188    1.165E+02                                 F               0         Blade 1 Y force, node 63, N
        189   -9.964E+02                                 F               0         Blade 1 Z force, node 63, N
        190    7.700E+03                                 F               0         Blade 1 X force, node 64, N
        191    1.140E+02                                 F               0         Blade 1 Y force, node 64, N
        192   -1.018E+03                                 F               0         Blade 1 Z force, node 64, N
        193    7.561E+03                                 F               0         Blade 1 X force, node 65, N
        194    1.061E+02                                 F               0         Blade 1 Y force, node 65, N
        195   -9.904E+02                                 F               0         Blade 1 Z force, node 65, N
        196    7.803E+03                                 F               0         Blade 1 X force, node 66, N
        197    1.038E+02                                 F               0         Blade 1 Y force, node 66, N
        198   -1.013E+03                                 F               0         Blade 1 Z force, node 66, N
        199    9.394E+03                                 F               0         Blade 1 X force, node 67, N
        200    1.176E+02                                 F               0         Blade 1 Y force, node 67, N
        201   -1.208E+03                                 F               0         Blade 1 Z force, node 67, N
        202    6.557E+03                                 F               0         Blade 1 X force, node 68, N
        203    7.720E+01                                 F               0         Blade 1 Y force, node 68, N
        204   -8.350E+02                                 F               0         Blade 1 Z force, node 68, N
        205    8.146E+03                                 F               0         Blade 1 X force, node 69, N
        206    9.092E+01                                 F               0         Blade 1 Y force, node 69, N
        207   -1.029E+03                                 F               0         Blade 1 Z force, node 69, N
        208    7.043E+03                                 F               0         Blade 1 X force, node 70, N
        209    7.428E+01                                 F               0         Blade 1 Y force, node 70, N
        210   -8.830E+02                                 F               0         Blade 1 Z force, node 70, N
        211    9.587E+03                                 F               0         Blade 1 X force, node 71, N
        212    9.441E+01                                 F               0         Blade 1 Y force, node 71, N
        213   -1.191E+03                                 F               0         Blade 1 Z force, node 71, N
        214    8.480E+03                                 F               0         Blade 1 X force, node 72, N
        215    7.751E+01                                 F               0         Blade 1 Y force, node 72, N
        216   -1.044E+03                                 F               0         Blade 1 Z force, node 72, N
        217    8.589E+03                                 F               0         Blade 1 X force, node 73, N