
Linearized model: Predictions were generated on 06-Feb-2024 at 16:18:08 using OpenFAST, compiled as a 64-bit application using single precision at commit v3.5.1
 linked with  NWTC Subroutine Library; ElastoDyn; InflowWind; AeroDyn; ServoDyn; HydroDyn; MAP++ (<1.20.10>, <Oct-20-2023>)

Description from the FAST input file: CCT-9 Campign 4 model. Input files to be run with OpenFAST 3.5.0. GitHub branch from Lu Wang (https://github.com/luwang00/openfast/tree/dev) compiled on March 7, 2023.

Simulation information:
   Simulation time:                  1002.2500 s
   Rotor Speed:                         1.0421 rad/s
   Azimuth:                             3.8449 rad
   Wind Speed:                         12.0000 m/s
   Number of continuous states:         0
   Number of discrete states:           0
   Number of constraint states:         0
   Number of inputs:                 1746
   Number of outputs:                   4
   Jacobians included in this file?    No

Order of inputs:
     Column   Operating Point                     Rotating Frame? Derivative Order Description
   ---------- ---------------                     --------------- ---------------- -----------
          1    1.513E+01                                 F               0         Tower X translation displacement, node 1, m
          2   -1.423E+00                                 F               0         Tower Y translation displacement, node 1, m
          3   -4.964E-01                                 F               0         Tower Z translation displacement, node 1, m
          4    1.704E+01                                 F               0         Tower X translation displacement, node 2, m
          5   -2.005E+00                                 F               0         Tower Y translation displacement, node 2, m
          6   -6.591E-01                                 F               0         Tower Z translation displacement, node 2, m
          7    1.899E+01                                 F               0         Tower X translation displacement, node 3, m
          8   -2.591E+00                                 F               0         Tower Y translation displacement, node 3, m
          9   -8.275E-01                                 F               0         Tower Z translation displacement, node 3, m
         10    2.096E+01                                 F               0         Tower X translation displacement, node 4, m
         11   -3.183E+00                                 F               0         Tower Y translation displacement, node 4, m
         12   -1.000E+00                                 F               0         Tower Z translation displacement, node 4, m
         13    2.296E+01                                 F               0         Tower X translation displacement, node 5, m
         14   -3.777E+00                                 F               0         Tower Y translation displacement, node 5, m
         15   -1.177E+00                                 F               0         Tower Z translation displacement, node 5, m
         16    2.497E+01                                 F               0         Tower X translation displacement, node 6, m
         17   -4.375E+00                                 F               0         Tower Y translation displacement, node 6, m
         18   -1.357E+00                                 F               0         Tower Z translation displacement, node 6, m
         19    2.699E+01                                 F               0         Tower X translation displacement, node 7, m
         20   -4.976E+00                                 F               0         Tower Y translation displacement, node 7, m
         21   -1.539E+00                                 F               0         Tower Z translation displacement, node 7, m
         22    2.903E+01                                 F               0         Tower X translation displacement, node 8, m
         23   -5.578E+00                                 F               0         Tower Y translation displacement, node 8, m
         24   -1.723E+00                                 F               0         Tower Z translation displacement, node 8, m
         25    3.108E+01                                 F               0         Tower X translation displacement, node 9, m
         26   -6.183E+00                                 F               0         Tower Y translation displacement, node 9, m
         27   -1.908E+00                                 F               0         Tower Z translation displacement, node 9, m
         28    3.313E+01                                 F               0         Tower X translation displacement, node 10, m
         29   -6.788E+00                                 F               0         Tower Y translation displacement, node 10, m
         30   -2.094E+00                                 F               0         Tower Z translation displacement, node 10, m
         31    3.518E+01                                 F               0         Tower X translation displacement, node 11, m
         32   -7.394E+00                                 F               0         Tower Y translation displacement, node 11, m
         33   -2.281E+00                                 F               0         Tower Z translation displacement, node 11, m
         34    9.881E-01, -3.534E-03, -1.540E-01         F               0         Tower X orientation angle, node 1, rad
         35    1.071E-02,  9.989E-01,  4.577E-02         F               0         Tower Y orientation angle, node 1, rad
         36    1.537E-01, -4.687E-02,  9.870E-01         F               0         Tower Z orientation angle, node 1, rad
         37    9.877E-01, -3.410E-03, -1.566E-01         F               0         Tower X orientation angle, node 2, rad
         38    1.077E-02,  9.989E-01,  4.617E-02         F               0         Tower Y orientation angle, node 2, rad
         39    1.563E-01, -4.729E-02,  9.866E-01         F               0         Tower Z orientation angle, node 2, rad
         40    9.873E-01, -3.300E-03, -1.589E-01         F               0         Tower X orientation angle, node 3, rad
         41    1.083E-02,  9.989E-01,  4.653E-02         F               0         Tower Y orientation angle, node 3, rad
         42    1.585E-01, -4.766E-02,  9.862E-01         F               0         Tower Z orientation angle, node 3, rad
         43    9.870E-01, -3.205E-03, -1.608E-01         F               0         Tower X orientation angle, node 4, rad
         44    1.088E-02,  9.988E-01,  4.685E-02         F               0         Tower Y orientation angle, node 4, rad
         45    1.605E-01, -4.799E-02,  9.859E-01         F               0         Tower Z orientation angle, node 4, rad
         46    9.867E-01, -3.125E-03, -1.625E-01         F               0         Tower X orientation angle, node 5, rad
         47    1.092E-02,  9.988E-01,  4.712E-02         F               0         Tower Y orientation angle, node 5, rad
         48    1.621E-01, -4.827E-02,  9.856E-01         F               0         Tower Z orientation angle, node 5, rad
         49    9.865E-01, -3.060E-03, -1.638E-01         F               0         Tower X orientation angle, node 6, rad
         50    1.096E-02,  9.988E-01,  4.735E-02         F               0         Tower Y orientation angle, node 6, rad
         51    1.635E-01, -4.851E-02,  9.854E-01         F               0         Tower Z orientation angle, node 6, rad
         52    9.863E-01, -3.010E-03, -1.648E-01         F               0         Tower X orientation angle, node 7, rad
         53    1.099E-02,  9.988E-01,  4.753E-02         F               0         Tower Y orientation angle, node 7, rad
         54    1.645E-01, -4.869E-02,  9.852E-01         F               0         Tower Z orientation angle, node 7, rad
         55    9.862E-01, -2.972E-03, -1.656E-01         F               0         Tower X orientation angle, node 8, rad
         56    1.101E-02,  9.988E-01,  4.768E-02         F               0         Tower Y orientation angle, node 8, rad
         57    1.652E-01, -4.884E-02,  9.850E-01         F               0         Tower Z orientation angle, node 8, rad
         58    9.861E-01, -2.945E-03, -1.661E-01         F               0         Tower X orientation angle, node 9, rad
         59    1.103E-02,  9.988E-01,  4.778E-02         F               0         Tower Y orientation angle, node 9, rad
         60    1.658E-01, -4.895E-02,  9.849E-01         F               0         Tower Z orientation angle, node 9, rad
         61    9.860E-01, -2.928E-03, -1.665E-01         F               0         Tower X orientation angle, node 10, rad
         62    1.104E-02,  9.988E-01,  4.785E-02         F               0         Tower Y orientation angle, node 10, rad
         63    1.661E-01, -4.902E-02,  9.849E-01         F               0         Tower Z orientation angle, node 10, rad
         64    9.860E-01, -2.919E-03, -1.666E-01         F               0         Tower X orientation angle, node 11, rad
         65    1.105E-02,  9.988E-01,  4.788E-02         F               0         Tower Y orientation angle, node 11, rad
         66    1.663E-01, -4.906E-02,  9.849E-01         F               0         Tower Z orientation angle, node 11, rad
         67   -1.287E-06                                 F               0         Tower X translation velocity, node 1, m/s
         68   -6.989E-04                                 F               0         Tower Y translation velocity, node 1, m/s
         69   -4.715E-04                                 F               0         Tower Z translation velocity, node 1, m/s
         70   -2.507E-05                                 F               0         Tower X translation velocity, node 2, m/s
         71   -1.145E-03                                 F               0         Tower Y translation velocity, node 2, m/s
         72   -4.891E-04                                 F               0         Tower Z translation velocity, node 2, m/s
         73   -1.634E-05                                 F               0         Tower X translation velocity, node 3, m/s
         74   -1.528E-03                                 F               0         Tower Y translation velocity, node 3, m/s
         75   -5.089E-04                                 F               0         Tower Z translation velocity, node 3, m/s
         76    1.495E-05                                 F               0         Tower X translation velocity, node 4, m/s
         77   -1.861E-03                                 F               0         Tower Y translation velocity, node 4, m/s
         78   -5.301E-04                                 F               0         Tower Z translation velocity, node 4, m/s
         79    6.280E-05                                 F               0         Tower X translation velocity, node 5, m/s
         80   -2.149E-03                                 F               0         Tower Y translation velocity, node 5, m/s
         81   -5.520E-04                                 F               0         Tower Z translation velocity, node 5, m/s
         82    1.218E-04                                 F               0         Tower X translation velocity, node 6, m/s
         83   -2.398E-03                                 F               0         Tower Y translation velocity, node 6, m/s
         84   -5.740E-04                                 F               0         Tower Z translation velocity, node 6, m/s
         85    1.872E-04                                 F               0         Tower X translation velocity, node 7, m/s
         86   -2.617E-03                                 F               0         Tower Y translation velocity, node 7, m/s
         87   -5.957E-04                                 F               0         Tower Z translation velocity, node 7, m/s
         88    2.562E-04                                 F               0         Tower X translation velocity, node 8, m/s
         89   -2.810E-03                                 F               0         Tower Y translation velocity, node 8, m/s
         90   -6.168E-04                                 F               0         Tower Z translation velocity, node 8, m/s
         91    3.262E-04                                 F               0         Tower X translation velocity, node 9, m/s
         92   -2.981E-03                                 F               0         Tower Y translation velocity, node 9, m/s
         93   -6.370E-04                                 F               0         Tower Z translation velocity, node 9, m/s
         94    3.957E-04                                 F               0         Tower X translation velocity, node 10, m/s
         95   -3.137E-03                                 F               0         Tower Y translation velocity, node 10, m/s
         96   -6.565E-04                                 F               0         Tower Z translation velocity, node 10, m/s
         97    4.641E-04                                 F               0         Tower X translation velocity, node 11, m/s
         98   -3.285E-03                                 F               0         Tower Y translation velocity, node 11, m/s
         99   -6.754E-04                                 F               0         Tower Z translation velocity, node 11, m/s
        100    3.664E+01                                 F               0         Hub X translation displacement, node 1, m
        101   -7.747E+00                                 F               0         Hub Y translation displacement, node 1, m
        102   -6.006E-01                                 F               0         Hub Z translation displacement, node 1, m
        103    9.632E-01,  2.225E-03, -2.687E-01         F               0         Hub X orientation angle, node 1, rad
        104   -1.820E-01, -7.300E-01, -6.587E-01         F               0         Hub Y orientation angle, node 1, rad
        105   -1.976E-01,  6.834E-01, -7.028E-01         F               0         Hub Z orientation angle, node 1, rad
        106    1.004E+00                                 F               0         Hub X rotation velocity, node 1, rad/s
        107    2.324E-03                                 F               0         Hub Y rotation velocity, node 1, rad/s
        108   -2.800E-01                                 F               0         Hub Z rotation velocity, node 1, rad/s
        109    9.682E-01,  2.388E-02, -2.490E-01         F               0         Blade root 1 X orientation angle, node 1, rad
        110   -1.534E-01, -7.296E-01, -6.664E-01         F               0         Blade root 1 Y orientation angle, node 1, rad
        111   -1.976E-01,  6.834E-01, -7.028E-01         F               0         Blade root 1 Z orientation angle, node 1, rad
        112    9.652E-01, -2.616E-02, -2.603E-01         F               0         Blade root 2 X orientation angle, node 1, rad
        113   -5.149E-02,  9.565E-01, -2.871E-01         F               0         Blade root 2 Y orientation angle, node 1, rad
        114    2.565E-01,  2.905E-01,  9.219E-01         F               0         Blade root 2 Z orientation angle, node 1, rad
        115    9.550E-01,  8.953E-03, -2.964E-01         F               0         Blade root 3 X orientation angle, node 1, rad
        116    2.906E-01, -2.267E-01,  9.296E-01         F               0         Blade root 3 Y orientation angle, node 1, rad
        117   -5.886E-02, -9.739E-01, -2.191E-01         F               0         Blade root 3 Z orientation angle, node 1, rad
        118    3.496E+01                                 F               0         Blade 1 X translation displacement, node 1, m
        119   -3.961E+00                                 F               0         Blade 1 Y translation displacement, node 1, m
        120   -1.000E+01                                 F               0         Blade 1 Z translation displacement, node 1, m
        121    3.456E+01                                 F               0         Blade 1 X translation displacement, node 2, m
        122   -3.049E+00                                 F               0         Blade 1 Y translation displacement, node 2, m
        123   -1.227E+01                                 F               0         Blade 1 Z translation displacement, node 2, m
        124    2.908E+01                                 F               0         Blade 1 X translation displacement, node 3, m
        125    9.356E+00                                 F               0         Blade 1 Y translation displacement, node 3, m
        126   -4.308E+01                                 F               0         Blade 1 Z translation displacement, node 3, m
        127    2.791E+01                                 F               0         Blade 1 X translation displacement, node 4, m
        128    1.200E+01                                 F               0         Blade 1 Y translation displacement, node 4, m
        129   -4.964E+01                                 F               0         Blade 1 Z translation displacement, node 4, m
        130    2.674E+01                                 F               0         Blade 1 X translation displacement, node 5, m
        131    1.464E+01                                 F               0         Blade 1 Y translation displacement, node 5, m
        132   -5.621E+01                                 F               0         Blade 1 Z translation displacement, node 5, m
        133    2.557E+01                                 F               0         Blade 1 X translation displacement, node 6, m
        134    1.729E+01                                 F               0         Blade 1 Y translation displacement, node 6, m
        135   -6.277E+01                                 F               0         Blade 1 Z translation displacement, node 6, m
        136    2.440E+01                                 F               0         Blade 1 X translation displacement, node 7, m
        137    1.993E+01                                 F               0         Blade 1 Y translation displacement, node 7, m
        138   -6.934E+01                                 F               0         Blade 1 Z translation displacement, node 7, m
        139    2.323E+01                                 F               0         Blade 1 X translation displacement, node 8, m
        140    2.257E+01                                 F               0         Blade 1 Y translation displacement, node 8, m
        141   -7.590E+01                                 F               0         Blade 1 Z translation displacement, node 8, m
        142    2.206E+01                                 F               0         Blade 1 X translation displacement, node 9, m
        143    2.522E+01                                 F               0         Blade 1 Y translation displacement, node 9, m
        144   -8.247E+01                                 F               0         Blade 1 Z translation displacement, node 9, m
        145    2.090E+01                                 F               0         Blade 1 X translation displacement, node 10, m
        146    2.786E+01                                 F               0         Blade 1 Y translation displacement, node 10, m
        147   -8.903E+01                                 F               0         Blade 1 Z translation displacement, node 10, m
        148    1.973E+01                                 F               0         Blade 1 X translation displacement, node 11, m
        149    3.050E+01                                 F               0         Blade 1 Y translation displacement, node 11, m
        150   -9.560E+01                                 F               0         Blade 1 Z translation displacement, node 11, m
        151    1.856E+01                                 F               0         Blade 1 X translation displacement, node 12, m
        152    3.315E+01                                 F               0         Blade 1 Y translation displacement, node 12, m
        153   -1.022E+02                                 F               0         Blade 1 Z translation displacement, node 12, m
        154    1.739E+01                                 F               0         Blade 1 X translation displacement, node 13, m
        155    3.579E+01                                 F               0         Blade 1 Y translation displacement, node 13, m
        156   -1.087E+02                                 F               0         Blade 1 Z translation displacement, node 13, m
        157    1.622E+01                                 F               0         Blade 1 X translation displacement, node 14, m
        158    3.843E+01                                 F               0         Blade 1 Y translation displacement, node 14, m
        159   -1.153E+02                                 F               0         Blade 1 Z translation displacement, node 14, m
        160    1.505E+01                                 F               0         Blade 1 X translation displacement, node 15, m
        161    4.108E+01                                 F               0         Blade 1 Y translation displacement, node 15, m
        162   -1.219E+02                                 F               0         Blade 1 Z translation displacement, node 15, m
        163    1.389E+01                                 F               0         Blade 1 X translation displacement, node 16, m
        164    4.372E+01                                 F               0         Blade 1 Y translation displacement, node 16, m
        165   -1.284E+02                                 F               0         Blade 1 Z translation displacement, node 16, m
        166    1.272E+01                                 F               0         Blade 1 X translation displacement, node 17, m
        167    4.636E+01                                 F               0         Blade 1 Y translation displacement, node 17, m
        168   -1.350E+02                                 F               0         Blade 1 Z translation displacement, node 17, m
        169    1.155E+01                                 F               0         Blade 1 X translation displacement, node 18, m
        170    4.900E+01                                 F               0         Blade 1 Y translation displacement, node 18, m
        171   -1.415E+02                                 F               0         Blade 1 Z translation displacement, node 18, m
        172    1.038E+01                                 F               0         Blade 1 X translation displacement, node 19, m
        173    5.165E+01                                 F               0         Blade 1 Y translation displacement, node 19, m
        174   -1.481E+02                                 F               0         Blade 1 Z translation displacement, node 19, m
        175    9.211E+00                                 F               0         Blade 1 X translation displacement, node 20, m
        176    5.429E+01                                 F               0         Blade 1 Y translation displacement, node 20, m
        177   -1.547E+02                                 F               0         Blade 1 Z translation displacement, node 20, m
        178    8.043E+00                                 F               0         Blade 1 X translation displacement, node 21, m
        179    5.693E+01                                 F               0         Blade 1 Y translation displacement, node 21, m
        180   -1.612E+02                                 F               0         Blade 1 Z translation displacement, node 21, m
        181    6.874E+00                                 F               0         Blade 1 X translation displacement, node 22, m
        182    5.958E+01                                 F               0         Blade 1 Y translation displacement, node 22, m
        183   -1.678E+02                                 F               0         Blade 1 Z translation displacement, node 22, m
        184    5.705E+00                                 F               0         Blade 1 X translation displacement, node 23, m
        185    6.222E+01                                 F               0         Blade 1 Y translation displacement, node 23, m
        186   -1.744E+02                                 F               0         Blade 1 Z translation displacement, node 23, m
        187    4.537E+00                                 F               0         Blade 1 X translation displacement, node 24, m
        188    6.486E+01                                 F               0         Blade 1 Y translation displacement, node 24, m
        189   -1.809E+02                                 F               0         Blade 1 Z translation displacement, node 24, m
        190    3.368E+00                                 F               0         Blade 1 X translation displacement, node 25, m
        191    6.751E+01                                 F               0         Blade 1 Y translation displacement, node 25, m
        192   -1.875E+02                                 F               0         Blade 1 Z translation displacement, node 25, m
        193    2.200E+00                                 F               0         Blade 1 X translation displacement, node 26, m
        194    7.015E+01                                 F               0         Blade 1 Y translation displacement, node 26, m
        195   -1.941E+02                                 F               0         Blade 1 Z translation displacement, node 26, m
        196    1.031E+00                                 F               0         Blade 1 X translation displacement, node 27, m
        197    7.279E+01                                 F               0         Blade 1 Y translation displacement, node 27, m
        198   -2.006E+02                                 F               0         Blade 1 Z translation displacement, node 27, m
        199    4.058E-02                                 F               0         Blade 1 X translation displacement, node 28, m
        200    7.503E+01                                 F               0         Blade 1 Y translation displacement, node 28, m
        201   -2.062E+02                                 F               0         Blade 1 Z translation displacement, node 28, m
        202    9.316E-01,  3.540E-01,  8.228E-02         F               0         Blade 1 X orientation angle, node 1, rad
        203    3.050E-01, -6.385E-01, -7.066E-01         F               0         Blade 1 Y orientation angle, node 1, rad
        204   -1.976E-01,  6.834E-01, -7.028E-01         F               0         Blade 1 Z orientation angle, node 1, rad
        205    9.316E-01,  3.540E-01,  8.228E-02         F               0         Blade 1 X orientation angle, node 2, rad
        206    3.050E-01, -6.385E-01, -7.066E-01         F               0         Blade 1 Y orientation angle, node 2, rad
        207   -1.976E-01,  6.834E-01, -7.028E-01         F               0         Blade 1 Z orientation angle, node 2, rad
        208    9.774E-01,  1.926E-01, -8.754E-02         F               0         Blade 1 X orientation angle, node 3, rad
        209    7.551E-02, -7.042E-01, -7.060E-01         F               0         Blade 1 Y orientation angle, node 3, rad
        210   -1.976E-01,  6.834E-01, -7.028E-01         F               0         Blade 1 Z orientation angle, node 3, rad
        211    9.797E-01,  1.627E-01, -1.173E-01         F               0         Blade 1 X orientation angle, node 4, rad
        212    3.417E-02, -7.117E-01, -7.017E-01         F               0         Blade 1 Y orientation angle, node 4, rad
        213   -1.976E-01,  6.834E-01, -7.028E-01         F               0         Blade 1 Z orientation angle, node 4, rad
        214    9.803E-01,  1.390E-01, -1.405E-01         F               0         Blade 1 X orientation angle, node 5, rad
        215    1.671E-03, -7.167E-01, -6.974E-01         F               0         Blade 1 Y orientation angle, node 5, rad
        216   -1.976E-01,  6.834E-01, -7.028E-01         F               0         Blade 1 Z orientation angle, node 5, rad
        217    9.800E-01,  1.199E-01, -1.589E-01         F               0         Blade 1 X orientation angle, node 6, rad
        218   -2.433E-02, -7.201E-01, -6.934E-01         F               0         Blade 1 Y orientation angle, node 6, rad
        219   -1.976E-01,  6.834E-01, -7.028E-01         F               0         Blade 1 Z orientation angle, node 6, rad
        220    9.792E-01,  1.042E-01, -1.740E-01         F               0         Blade 1 X orientation angle, node 7, rad
        221   -4.570E-02, -7.226E-01, -6.898E-01         F               0         Blade 1 Y orientation angle, node 7, rad
        222   -1.976E-01,  6.834E-01, -7.028E-01         F               0         Blade 1 Z orientation angle, node 7, rad
        223    9.782E-01,  9.105E-02, -1.865E-01         F               0         Blade 1 X orientation angle, node 8, rad
        224   -6.347E-02, -7.243E-01, -6.865E-01         F               0         Blade 1 Y orientation angle, node 8, rad
        225   -1.976E-01,  6.834E-01, -7.028E-01         F               0         Blade 1 Z orientation angle, node 8, rad
        226    9.771E-01,  7.992E-02, -1.970E-01         F               0         Blade 1 X orientation angle, node 9, rad
        227   -7.849E-02, -7.256E-01, -6.836E-01         F               0         Blade 1 Y orientation angle, node 9, rad