
Linearized model: Predictions were generated on 31-Jan-2024 at 12:35:17 using OpenFAST, compiled as a 64-bit application using single precision at commit v3.5.1
 linked with  NWTC Subroutine Library; ElastoDyn; InflowWind; AeroDyn; ServoDyn; HydroDyn; MAP++ (<1.20.10>, <Oct-20-2023>)

Description from the FAST input file: CCT-9 Campign 4 model. Input files to be run with OpenFAST 3.5.0. GitHub branch from Lu Wang (https://github.com/luwang00/openfast/tree/dev) compiled on March 7, 2023.

Simulation information:
   Simulation time:                   501.7500 s
   Rotor Speed:                         0.8936 rad/s
   Azimuth:                             2.3100 rad
   Wind Speed:                         10.0000 m/s
   Number of continuous states:         0
   Number of discrete states:           0
   Number of constraint states:         0
   Number of inputs:                  303
   Number of outputs:                   1
   Jacobians included in this file?    No

Order of inputs:
     Column   Operating Point                     Rotating Frame? Derivative Order Description
   ---------- ---------------                     --------------- ---------------- -----------
          1   -1.080E+01                                 F               0         X-component position of node 1 (hub), m
          2    0.000E+00                                 F               0         Y-component position of node 1 (hub), m
          3    1.497E+02                                 F               0         Z-component position of node 1 (hub), m
          4    1.502E-01                                 F               0         X-component position of node 2 (blade 1, node 1), m
          5   -1.103E+01                                 F               0         Y-component position of node 2 (blade 1, node 1), m
          6    1.459E+02                                 F               0         Z-component position of node 2 (blade 1, node 1), m
          7    4.222E-02                                 F               0         X-component position of node 3 (blade 1, node 2), m
          8   -1.198E+01                                 F               0         Y-component position of node 3 (blade 1, node 2), m
          9    1.450E+02                                 F               0         Z-component position of node 3 (blade 1, node 2), m
         10   -1.427E+00                                 F               0         X-component position of node 4 (blade 1, node 3), m
         11   -2.487E+01                                 F               0         Y-component position of node 4 (blade 1, node 3), m
         12    1.323E+02                                 F               0         Z-component position of node 4 (blade 1, node 3), m
         13   -1.740E+00                                 F               0         X-component position of node 5 (blade 1, node 4), m
         14   -2.761E+01                                 F               0         Y-component position of node 5 (blade 1, node 4), m
         15    1.295E+02                                 F               0         Z-component position of node 5 (blade 1, node 4), m
         16   -2.053E+00                                 F               0         X-component position of node 6 (blade 1, node 5), m
         17   -3.036E+01                                 F               0         Y-component position of node 6 (blade 1, node 5), m
         18    1.268E+02                                 F               0         Z-component position of node 6 (blade 1, node 5), m
         19   -2.366E+00                                 F               0         X-component position of node 7 (blade 1, node 6), m
         20   -3.311E+01                                 F               0         Y-component position of node 7 (blade 1, node 6), m
         21    1.241E+02                                 F               0         Z-component position of node 7 (blade 1, node 6), m
         22   -2.679E+00                                 F               0         X-component position of node 8 (blade 1, node 7), m
         23   -3.585E+01                                 F               0         Y-component position of node 8 (blade 1, node 7), m
         24    1.214E+02                                 F               0         Z-component position of node 8 (blade 1, node 7), m
         25   -2.992E+00                                 F               0         X-component position of node 9 (blade 1, node 8), m
         26   -3.860E+01                                 F               0         Y-component position of node 9 (blade 1, node 8), m
         27    1.187E+02                                 F               0         Z-component position of node 9 (blade 1, node 8), m
         28   -3.305E+00                                 F               0         X-component position of node 10 (blade 1, node 9), m
         29   -4.134E+01                                 F               0         Y-component position of node 10 (blade 1, node 9), m
         30    1.160E+02                                 F               0         Z-component position of node 10 (blade 1, node 9), m
         31   -3.618E+00                                 F               0         X-component position of node 11 (blade 1, node 10), m
         32   -4.409E+01                                 F               0         Y-component position of node 11 (blade 1, node 10), m
         33    1.133E+02                                 F               0         Z-component position of node 11 (blade 1, node 10), m
         34   -3.931E+00                                 F               0         X-component position of node 12 (blade 1, node 11), m
         35   -4.684E+01                                 F               0         Y-component position of node 12 (blade 1, node 11), m
         36    1.106E+02                                 F               0         Z-component position of node 12 (blade 1, node 11), m
         37   -4.244E+00                                 F               0         X-component position of node 13 (blade 1, node 12), m
         38   -4.958E+01                                 F               0         Y-component position of node 13 (blade 1, node 12), m
         39    1.079E+02                                 F               0         Z-component position of node 13 (blade 1, node 12), m
         40   -4.557E+00                                 F               0         X-component position of node 14 (blade 1, node 13), m
         41   -5.233E+01                                 F               0         Y-component position of node 14 (blade 1, node 13), m
         42    1.052E+02                                 F               0         Z-component position of node 14 (blade 1, node 13), m
         43   -4.870E+00                                 F               0         X-component position of node 15 (blade 1, node 14), m
         44   -5.507E+01                                 F               0         Y-component position of node 15 (blade 1, node 14), m
         45    1.025E+02                                 F               0         Z-component position of node 15 (blade 1, node 14), m
         46   -5.183E+00                                 F               0         X-component position of node 16 (blade 1, node 15), m
         47   -5.782E+01                                 F               0         Y-component position of node 16 (blade 1, node 15), m
         48    9.978E+01                                 F               0         Z-component position of node 16 (blade 1, node 15), m
         49   -5.496E+00                                 F               0         X-component position of node 17 (blade 1, node 16), m
         50   -6.057E+01                                 F               0         Y-component position of node 17 (blade 1, node 16), m
         51    9.708E+01                                 F               0         Z-component position of node 17 (blade 1, node 16), m
         52   -5.809E+00                                 F               0         X-component position of node 18 (blade 1, node 17), m
         53   -6.331E+01                                 F               0         Y-component position of node 18 (blade 1, node 17), m
         54    9.437E+01                                 F               0         Z-component position of node 18 (blade 1, node 17), m
         55   -6.122E+00                                 F               0         X-component position of node 19 (blade 1, node 18), m
         56   -6.606E+01                                 F               0         Y-component position of node 19 (blade 1, node 18), m
         57    9.167E+01                                 F               0         Z-component position of node 19 (blade 1, node 18), m
         58   -6.435E+00                                 F               0         X-component position of node 20 (blade 1, node 19), m
         59   -6.880E+01                                 F               0         Y-component position of node 20 (blade 1, node 19), m
         60    8.896E+01                                 F               0         Z-component position of node 20 (blade 1, node 19), m
         61   -6.748E+00                                 F               0         X-component position of node 21 (blade 1, node 20), m
         62   -7.155E+01                                 F               0         Y-component position of node 21 (blade 1, node 20), m
         63    8.625E+01                                 F               0         Z-component position of node 21 (blade 1, node 20), m
         64   -7.060E+00                                 F               0         X-component position of node 22 (blade 1, node 21), m
         65   -7.430E+01                                 F               0         Y-component position of node 22 (blade 1, node 21), m
         66    8.355E+01                                 F               0         Z-component position of node 22 (blade 1, node 21), m
         67   -7.374E+00                                 F               0         X-component position of node 23 (blade 1, node 22), m
         68   -7.704E+01                                 F               0         Y-component position of node 23 (blade 1, node 22), m
         69    8.084E+01                                 F               0         Z-component position of node 23 (blade 1, node 22), m
         70   -7.686E+00                                 F               0         X-component position of node 24 (blade 1, node 23), m
         71   -7.979E+01                                 F               0         Y-component position of node 24 (blade 1, node 23), m
         72    7.814E+01                                 F               0         Z-component position of node 24 (blade 1, node 23), m
         73   -7.999E+00                                 F               0         X-component position of node 25 (blade 1, node 24), m
         74   -8.253E+01                                 F               0         Y-component position of node 25 (blade 1, node 24), m
         75    7.543E+01                                 F               0         Z-component position of node 25 (blade 1, node 24), m
         76   -8.312E+00                                 F               0         X-component position of node 26 (blade 1, node 25), m
         77   -8.528E+01                                 F               0         Y-component position of node 26 (blade 1, node 25), m
         78    7.273E+01                                 F               0         Z-component position of node 26 (blade 1, node 25), m
         79   -8.625E+00                                 F               0         X-component position of node 27 (blade 1, node 26), m
         80   -8.803E+01                                 F               0         Y-component position of node 27 (blade 1, node 26), m
         81    7.002E+01                                 F               0         Z-component position of node 27 (blade 1, node 26), m
         82   -8.938E+00                                 F               0         X-component position of node 28 (blade 1, node 27), m
         83   -9.077E+01                                 F               0         Y-component position of node 28 (blade 1, node 27), m
         84    6.731E+01                                 F               0         Z-component position of node 28 (blade 1, node 27), m
         85   -9.204E+00                                 F               0         X-component position of node 29 (blade 1, node 28), m
         86   -9.310E+01                                 F               0         Y-component position of node 29 (blade 1, node 28), m
         87    6.502E+01                                 F               0         Z-component position of node 29 (blade 1, node 28), m
         88    3.492E-01                                 F               0         X-component position of node 30 (blade 2, node 1), m
         89   -1.755E+00                                 F               0         Y-component position of node 30 (blade 2, node 1), m
         90    1.483E+02                                 F               0         Z-component position of node 30 (blade 2, node 1), m
         91    2.892E-01                                 F               0         X-component position of node 31 (blade 2, node 2), m
         92   -4.669E-01                                 F               0         Y-component position of node 31 (blade 2, node 2), m
         93    1.480E+02                                 F               0         Z-component position of node 31 (blade 2, node 2), m
         94   -5.277E-01                                 F               0         X-component position of node 32 (blade 2, node 3), m
         95    1.705E+01                                 F               0         Y-component position of node 32 (blade 2, node 3), m
         96    1.433E+02                                 F               0         Z-component position of node 32 (blade 2, node 3), m
         97   -7.018E-01                                 F               0         X-component position of node 33 (blade 2, node 4), m
         98    2.078E+01                                 F               0         Y-component position of node 33 (blade 2, node 4), m
         99    1.423E+02                                 F               0         Z-component position of node 33 (blade 2, node 4), m
        100   -8.758E-01                                 F               0         X-component position of node 34 (blade 2, node 5), m
        101    2.451E+01                                 F               0         Y-component position of node 34 (blade 2, node 5), m
        102    1.413E+02                                 F               0         Z-component position of node 34 (blade 2, node 5), m
        103   -1.050E+00                                 F               0         X-component position of node 35 (blade 2, node 6), m
        104    2.824E+01                                 F               0         Y-component position of node 35 (blade 2, node 6), m
        105    1.403E+02                                 F               0         Z-component position of node 35 (blade 2, node 6), m
        106   -1.224E+00                                 F               0         X-component position of node 36 (blade 2, node 7), m
        107    3.197E+01                                 F               0         Y-component position of node 36 (blade 2, node 7), m
        108    1.393E+02                                 F               0         Z-component position of node 36 (blade 2, node 7), m
        109   -1.398E+00                                 F               0         X-component position of node 37 (blade 2, node 8), m
        110    3.570E+01                                 F               0         Y-component position of node 37 (blade 2, node 8), m
        111    1.383E+02                                 F               0         Z-component position of node 37 (blade 2, node 8), m
        112   -1.572E+00                                 F               0         X-component position of node 38 (blade 2, node 9), m
        113    3.944E+01                                 F               0         Y-component position of node 38 (blade 2, node 9), m
        114    1.373E+02                                 F               0         Z-component position of node 38 (blade 2, node 9), m
        115   -1.746E+00                                 F               0         X-component position of node 39 (blade 2, node 10), m
        116    4.317E+01                                 F               0         Y-component position of node 39 (blade 2, node 10), m
        117    1.363E+02                                 F               0         Z-component position of node 39 (blade 2, node 10), m
        118   -1.920E+00                                 F               0         X-component position of node 40 (blade 2, node 11), m
        119    4.690E+01                                 F               0         Y-component position of node 40 (blade 2, node 11), m
        120    1.353E+02                                 F               0         Z-component position of node 40 (blade 2, node 11), m
        121   -2.094E+00                                 F               0         X-component position of node 41 (blade 2, node 12), m
        122    5.063E+01                                 F               0         Y-component position of node 41 (blade 2, node 12), m
        123    1.343E+02                                 F               0         Z-component position of node 41 (blade 2, node 12), m
        124   -2.268E+00                                 F               0         X-component position of node 42 (blade 2, node 13), m
        125    5.436E+01                                 F               0         Y-component position of node 42 (blade 2, node 13), m
        126    1.332E+02                                 F               0         Z-component position of node 42 (blade 2, node 13), m
        127   -2.442E+00                                 F               0         X-component position of node 43 (blade 2, node 14), m
        128    5.809E+01                                 F               0         Y-component position of node 43 (blade 2, node 14), m
        129    1.322E+02                                 F               0         Z-component position of node 43 (blade 2, node 14), m
        130   -2.616E+00                                 F               0         X-component position of node 44 (blade 2, node 15), m
        131    6.182E+01                                 F               0         Y-component position of node 44 (blade 2, node 15), m
        132    1.312E+02                                 F               0         Z-component position of node 44 (blade 2, node 15), m
        133   -2.790E+00                                 F               0         X-component position of node 45 (blade 2, node 16), m
        134    6.556E+01                                 F               0         Y-component position of node 45 (blade 2, node 16), m
        135    1.302E+02                                 F               0         Z-component position of node 45 (blade 2, node 16), m
        136   -2.964E+00                                 F               0         X-component position of node 46 (blade 2, node 17), m
        137    6.929E+01                                 F               0         Y-component position of node 46 (blade 2, node 17), m
        138    1.292E+02                                 F               0         Z-component position of node 46 (blade 2, node 17), m
        139   -3.139E+00                                 F               0         X-component position of node 47 (blade 2, node 18), m
        140    7.302E+01                                 F               0         Y-component position of node 47 (blade 2, node 18), m
        141    1.282E+02                                 F               0         Z-component position of node 47 (blade 2, node 18), m
        142   -3.313E+00                                 F               0         X-component position of node 48 (blade 2, node 19), m
        143    7.675E+01                                 F               0         Y-component position of node 48 (blade 2, node 19), m
        144    1.272E+02                                 F               0         Z-component position of node 48 (blade 2, node 19), m
        145   -3.487E+00                                 F               0         X-component position of node 49 (blade 2, node 20), m
        146    8.048E+01                                 F               0         Y-component position of node 49 (blade 2, node 20), m
        147    1.262E+02                                 F               0         Z-component position of node 49 (blade 2, node 20), m
        148   -3.661E+00                                 F               0         X-component position of node 50 (blade 2, node 21), m
        149    8.421E+01                                 F               0         Y-component position of node 50 (blade 2, node 21), m
        150    1.252E+02                                 F               0         Z-component position of node 50 (blade 2, node 21), m
        151   -3.835E+00                                 F               0         X-component position of node 51 (blade 2, node 22), m
        152    8.794E+01                                 F               0         Y-component position of node 51 (blade 2, node 22), m
        153    1.242E+02                                 F               0         Z-component position of node 51 (blade 2, node 22), m
        154   -4.009E+00                                 F               0         X-component position of node 52 (blade 2, node 23), m
        155    9.168E+01                                 F               0         Y-component position of node 52 (blade 2, node 23), m
        156    1.232E+02                                 F               0         Z-component position of node 52 (blade 2, node 23), m
        157   -4.183E+00                                 F               0         X-component position of node 53 (blade 2, node 24), m
        158    9.541E+01                                 F               0         Y-component position of node 53 (blade 2, node 24), m
        159    1.222E+02                                 F               0         Z-component position of node 53 (blade 2, node 24), m
        160   -4.357E+00                                 F               0         X-component position of node 54 (blade 2, node 25), m
        161    9.914E+01                                 F               0         Y-component position of node 54 (blade 2, node 25), m
        162    1.212E+02                                 F               0         Z-component position of node 54 (blade 2, node 25), m
        163   -4.531E+00                                 F               0         X-component position of node 55 (blade 2, node 26), m
        164    1.029E+02                                 F               0         Y-component position of node 55 (blade 2, node 26), m
        165    1.202E+02                                 F               0         Z-component position of node 55 (blade 2, node 26), m
        166   -4.705E+00                                 F               0         X-component position of node 56 (blade 2, node 27), m
        167    1.066E+02                                 F               0         Y-component position of node 56 (blade 2, node 27), m
        168    1.192E+02                                 F               0         Z-component position of node 56 (blade 2, node 27), m
        169   -4.853E+00                                 F               0         X-component position of node 57 (blade 2, node 28), m
        170    1.098E+02                                 F               0         Y-component position of node 57 (blade 2, node 28), m
        171    1.184E+02                                 F               0         Z-component position of node 57 (blade 2, node 28), m
        172    1.296E+00                                 F               0         X-component position of node 58 (blade 3, node 1), m
        173   -8.511E+00                                 F               0         Y-component position of node 58 (blade 3, node 1), m
        174    1.551E+02                                 F               0         Z-component position of node 58 (blade 3, node 1), m
        175    1.464E+00                                 F               0         X-component position of node 59 (blade 3, node 2), m
        176   -8.851E+00                                 F               0         Y-component position of node 59 (blade 3, node 2), m
        177    1.564E+02                                 F               0         Z-component position of node 59 (blade 3, node 2), m
        178    3.750E+00                                 F               0         X-component position of node 60 (blade 3, node 3), m
        179   -1.348E+01                                 F               0         Y-component position of node 60 (blade 3, node 3), m
        180    1.738E+02                                 F               0         Z-component position of node 60 (blade 3, node 3), m
        181    4.237E+00                                 F               0         X-component position of node 61 (blade 3, node 4), m
        182   -1.446E+01                                 F               0         Y-component position of node 61 (blade 3, node 4), m
        183    1.775E+02                                 F               0         Z-component position of node 61 (blade 3, node 4), m
        184    4.724E+00                                 F               0         X-component position of node 62 (blade 3, node 5), m
        185   -1.545E+01                                 F               0         Y-component position of node 62 (blade 3, node 5), m
        186    1.812E+02                                 F               0         Z-component position of node 62 (blade 3, node 5), m
        187    5.211E+00                                 F               0         X-component position of node 63 (blade 3, node 6), m
        188   -1.643E+01                                 F               0         Y-component position of node 63 (blade 3, node 6), m
        189    1.849E+02                                 F               0         Z-component position of node 63 (blade 3, node 6), m
        190    5.698E+00                                 F               0         X-component position of node 64 (blade 3, node 7), m
        191   -1.742E+01                                 F               0         Y-component position of node 64 (blade 3, node 7), m
        192    1.886E+02                                 F               0         Z-component position of node 64 (blade 3, node 7), m
        193    6.185E+00                                 F               0         X-component position of node 65 (blade 3, node 8), m
        194   -1.840E+01                                 F               0         Y-component position of node 65 (blade 3, node 8), m
        195    1.923E+02                                 F               0         Z-component position of node 65 (blade 3, node 8), m
        196    6.672E+00                                 F               0         X-component position of node 66 (blade 3, node 9), m
        197   -1.939E+01                                 F               0         Y-component position of node 66 (blade 3, node 9), m
        198    1.960E+02                                 F               0         Z-component position of node 66 (blade 3, node 9), m
        199    7.159E+00                                 F               0         X-component position of node 67 (blade 3, node 10), m
        200   -2.038E+01                                 F               0         Y-component position of node 67 (blade 3, node 10), m
        201    1.997E+02                                 F               0         Z-component position of node 67 (blade 3, node 10), m
        202    7.646E+00                                 F               0         X-component position of node 68 (blade 3, node 11), m
        203   -2.136E+01                                 F               0         Y-component position of node 68 (blade 3, node 11), m
        204    2.034E+02                                 F               0         Z-component position of node 68 (blade 3, node 11), m
        205    8.134E+00                                 F               0         X-component position of node 69 (blade 3, node 12), m
        206   -2.235E+01                                 F               0         Y-component position of node 69 (blade 3, node 12), m
        207    2.071E+02                                 F               0         Z-component position of node 69 (blade 3, node 12), m
        208    8.621E+00                                 F               0         X-component position of node 70 (blade 3, node 13), m
        209   -2.333E+01                                 F               0         Y-component position of node 70 (blade 3, node 13), m
        210    2.108E+02                                 F               0         Z-component position of node 70 (blade 3, node 13), m
        211    9.108E+00                                 F               0         X-component position of node 71 (blade 3, node 14), m