
Linearized model: Predictions were generated on 06-Feb-2024 at 16:18:08 using OpenFAST, compiled as a 64-bit application using single precision at commit v3.5.1
 linked with  NWTC Subroutine Library; ElastoDyn; InflowWind; AeroDyn; ServoDyn; HydroDyn; MAP++ (<1.20.10>, <Oct-20-2023>)

Description from the FAST input file: CCT-9 Campign 4 model. Input files to be run with OpenFAST 3.5.0. GitHub branch from Lu Wang (https://github.com/luwang00/openfast/tree/dev) compiled on March 7, 2023.

Simulation information:
   Simulation time:                  1005.7250 s
   Rotor Speed:                         1.0418 rad/s
   Azimuth:                             1.1826 rad
   Wind Speed:                         12.0000 m/s
   Number of continuous states:         0
   Number of discrete states:           0
   Number of constraint states:         0
   Number of inputs:                  303
   Number of outputs:                   1
   Jacobians included in this file?    No

Order of inputs:
     Column   Operating Point                     Rotating Frame? Derivative Order Description
   ---------- ---------------                     --------------- ---------------- -----------
          1   -1.080E+01                                 F               0         X-component position of node 1 (hub), m
          2    0.000E+00                                 F               0         Y-component position of node 1 (hub), m
          3    1.497E+02                                 F               0         Z-component position of node 1 (hub), m
          4    2.634E+01                                 F               0         X-component position of node 2 (blade 1, node 1), m
          5   -1.297E+01                                 F               0         Y-component position of node 2 (blade 1, node 1), m
          6    1.509E+02                                 F               0         Z-component position of node 2 (blade 1, node 1), m
          7    2.647E+01                                 F               0         X-component position of node 3 (blade 1, node 2), m
          8   -1.423E+01                                 F               0         Y-component position of node 3 (blade 1, node 2), m
          9    1.513E+02                                 F               0         Z-component position of node 3 (blade 1, node 2), m
         10    2.812E+01                                 F               0         X-component position of node 4 (blade 1, node 3), m
         11   -3.135E+01                                 F               0         Y-component position of node 4 (blade 1, node 3), m
         12    1.572E+02                                 F               0         Z-component position of node 4 (blade 1, node 3), m
         13    2.848E+01                                 F               0         X-component position of node 5 (blade 1, node 4), m
         14   -3.500E+01                                 F               0         Y-component position of node 5 (blade 1, node 4), m
         15    1.584E+02                                 F               0         Z-component position of node 5 (blade 1, node 4), m
         16    2.883E+01                                 F               0         X-component position of node 6 (blade 1, node 5), m
         17   -3.865E+01                                 F               0         Y-component position of node 6 (blade 1, node 5), m
         18    1.596E+02                                 F               0         Z-component position of node 6 (blade 1, node 5), m
         19    2.918E+01                                 F               0         X-component position of node 7 (blade 1, node 6), m
         20   -4.229E+01                                 F               0         Y-component position of node 7 (blade 1, node 6), m
         21    1.609E+02                                 F               0         Z-component position of node 7 (blade 1, node 6), m
         22    2.954E+01                                 F               0         X-component position of node 8 (blade 1, node 7), m
         23   -4.594E+01                                 F               0         Y-component position of node 8 (blade 1, node 7), m
         24    1.621E+02                                 F               0         Z-component position of node 8 (blade 1, node 7), m
         25    2.989E+01                                 F               0         X-component position of node 9 (blade 1, node 8), m
         26   -4.959E+01                                 F               0         Y-component position of node 9 (blade 1, node 8), m
         27    1.633E+02                                 F               0         Z-component position of node 9 (blade 1, node 8), m
         28    3.025E+01                                 F               0         X-component position of node 10 (blade 1, node 9), m
         29   -5.323E+01                                 F               0         Y-component position of node 10 (blade 1, node 9), m
         30    1.646E+02                                 F               0         Z-component position of node 10 (blade 1, node 9), m
         31    3.060E+01                                 F               0         X-component position of node 11 (blade 1, node 10), m
         32   -5.688E+01                                 F               0         Y-component position of node 11 (blade 1, node 10), m
         33    1.658E+02                                 F               0         Z-component position of node 11 (blade 1, node 10), m
         34    3.095E+01                                 F               0         X-component position of node 12 (blade 1, node 11), m
         35   -6.053E+01                                 F               0         Y-component position of node 12 (blade 1, node 11), m
         36    1.670E+02                                 F               0         Z-component position of node 12 (blade 1, node 11), m
         37    3.131E+01                                 F               0         X-component position of node 13 (blade 1, node 12), m
         38   -6.418E+01                                 F               0         Y-component position of node 13 (blade 1, node 12), m
         39    1.683E+02                                 F               0         Z-component position of node 13 (blade 1, node 12), m
         40    3.166E+01                                 F               0         X-component position of node 14 (blade 1, node 13), m
         41   -6.782E+01                                 F               0         Y-component position of node 14 (blade 1, node 13), m
         42    1.695E+02                                 F               0         Z-component position of node 14 (blade 1, node 13), m
         43    3.201E+01                                 F               0         X-component position of node 15 (blade 1, node 14), m
         44   -7.147E+01                                 F               0         Y-component position of node 15 (blade 1, node 14), m
         45    1.708E+02                                 F               0         Z-component position of node 15 (blade 1, node 14), m
         46    3.237E+01                                 F               0         X-component position of node 16 (blade 1, node 15), m
         47   -7.512E+01                                 F               0         Y-component position of node 16 (blade 1, node 15), m
         48    1.720E+02                                 F               0         Z-component position of node 16 (blade 1, node 15), m
         49    3.272E+01                                 F               0         X-component position of node 17 (blade 1, node 16), m
         50   -7.877E+01                                 F               0         Y-component position of node 17 (blade 1, node 16), m
         51    1.732E+02                                 F               0         Z-component position of node 17 (blade 1, node 16), m
         52    3.307E+01                                 F               0         X-component position of node 18 (blade 1, node 17), m
         53   -8.241E+01                                 F               0         Y-component position of node 18 (blade 1, node 17), m
         54    1.745E+02                                 F               0         Z-component position of node 18 (blade 1, node 17), m
         55    3.343E+01                                 F               0         X-component position of node 19 (blade 1, node 18), m
         56   -8.606E+01                                 F               0         Y-component position of node 19 (blade 1, node 18), m
         57    1.757E+02                                 F               0         Z-component position of node 19 (blade 1, node 18), m
         58    3.378E+01                                 F               0         X-component position of node 20 (blade 1, node 19), m
         59   -8.971E+01                                 F               0         Y-component position of node 20 (blade 1, node 19), m
         60    1.769E+02                                 F               0         Z-component position of node 20 (blade 1, node 19), m
         61    3.413E+01                                 F               0         X-component position of node 21 (blade 1, node 20), m
         62   -9.336E+01                                 F               0         Y-component position of node 21 (blade 1, node 20), m
         63    1.782E+02                                 F               0         Z-component position of node 21 (blade 1, node 20), m
         64    3.449E+01                                 F               0         X-component position of node 22 (blade 1, node 21), m
         65   -9.700E+01                                 F               0         Y-component position of node 22 (blade 1, node 21), m
         66    1.794E+02                                 F               0         Z-component position of node 22 (blade 1, node 21), m
         67    3.484E+01                                 F               0         X-component position of node 23 (blade 1, node 22), m
         68   -1.007E+02                                 F               0         Y-component position of node 23 (blade 1, node 22), m
         69    1.807E+02                                 F               0         Z-component position of node 23 (blade 1, node 22), m
         70    3.519E+01                                 F               0         X-component position of node 24 (blade 1, node 23), m
         71   -1.043E+02                                 F               0         Y-component position of node 24 (blade 1, node 23), m
         72    1.819E+02                                 F               0         Z-component position of node 24 (blade 1, node 23), m
         73    3.555E+01                                 F               0         X-component position of node 25 (blade 1, node 24), m
         74   -1.079E+02                                 F               0         Y-component position of node 25 (blade 1, node 24), m
         75    1.831E+02                                 F               0         Z-component position of node 25 (blade 1, node 24), m
         76    3.590E+01                                 F               0         X-component position of node 26 (blade 1, node 25), m
         77   -1.116E+02                                 F               0         Y-component position of node 26 (blade 1, node 25), m
         78    1.844E+02                                 F               0         Z-component position of node 26 (blade 1, node 25), m
         79    3.625E+01                                 F               0         X-component position of node 27 (blade 1, node 26), m
         80   -1.152E+02                                 F               0         Y-component position of node 27 (blade 1, node 26), m
         81    1.856E+02                                 F               0         Z-component position of node 27 (blade 1, node 26), m
         82    3.661E+01                                 F               0         X-component position of node 28 (blade 1, node 27), m
         83   -1.189E+02                                 F               0         Y-component position of node 28 (blade 1, node 27), m
         84    1.868E+02                                 F               0         Z-component position of node 28 (blade 1, node 27), m
         85    3.691E+01                                 F               0         X-component position of node 29 (blade 1, node 28), m
         86   -1.220E+02                                 F               0         Y-component position of node 29 (blade 1, node 28), m
         87    1.879E+02                                 F               0         Z-component position of node 29 (blade 1, node 28), m
         88    2.437E+01                                 F               0         X-component position of node 30 (blade 2, node 1), m
         89   -6.732E+00                                 F               0         Y-component position of node 30 (blade 2, node 1), m
         90    1.439E+02                                 F               0         Z-component position of node 30 (blade 2, node 1), m
         91    2.402E+01                                 F               0         X-component position of node 31 (blade 2, node 2), m
         92   -6.487E+00                                 F               0         Y-component position of node 31 (blade 2, node 2), m
         93    1.426E+02                                 F               0         Z-component position of node 31 (blade 2, node 2), m
         94    1.922E+01                                 F               0         X-component position of node 32 (blade 2, node 3), m
         95   -3.157E+00                                 F               0         Y-component position of node 32 (blade 2, node 3), m
         96    1.255E+02                                 F               0         Z-component position of node 32 (blade 2, node 3), m
         97    1.819E+01                                 F               0         X-component position of node 33 (blade 2, node 4), m
         98   -2.448E+00                                 F               0         Y-component position of node 33 (blade 2, node 4), m
         99    1.218E+02                                 F               0         Z-component position of node 33 (blade 2, node 4), m
        100    1.717E+01                                 F               0         X-component position of node 34 (blade 2, node 5), m
        101   -1.739E+00                                 F               0         Y-component position of node 34 (blade 2, node 5), m
        102    1.181E+02                                 F               0         Z-component position of node 34 (blade 2, node 5), m
        103    1.615E+01                                 F               0         X-component position of node 35 (blade 2, node 6), m
        104   -1.029E+00                                 F               0         Y-component position of node 35 (blade 2, node 6), m
        105    1.145E+02                                 F               0         Z-component position of node 35 (blade 2, node 6), m
        106    1.512E+01                                 F               0         X-component position of node 36 (blade 2, node 7), m
        107   -3.197E-01                                 F               0         Y-component position of node 36 (blade 2, node 7), m
        108    1.108E+02                                 F               0         Z-component position of node 36 (blade 2, node 7), m
        109    1.410E+01                                 F               0         X-component position of node 37 (blade 2, node 8), m
        110    3.899E-01                                 F               0         Y-component position of node 37 (blade 2, node 8), m
        111    1.071E+02                                 F               0         Z-component position of node 37 (blade 2, node 8), m
        112    1.308E+01                                 F               0         X-component position of node 38 (blade 2, node 9), m
        113    1.099E+00                                 F               0         Y-component position of node 38 (blade 2, node 9), m
        114    1.035E+02                                 F               0         Z-component position of node 38 (blade 2, node 9), m
        115    1.206E+01                                 F               0         X-component position of node 39 (blade 2, node 10), m
        116    1.809E+00                                 F               0         Y-component position of node 39 (blade 2, node 10), m
        117    9.982E+01                                 F               0         Z-component position of node 39 (blade 2, node 10), m
        118    1.103E+01                                 F               0         X-component position of node 40 (blade 2, node 11), m
        119    2.518E+00                                 F               0         Y-component position of node 40 (blade 2, node 11), m
        120    9.616E+01                                 F               0         Z-component position of node 40 (blade 2, node 11), m
        121    1.001E+01                                 F               0         X-component position of node 41 (blade 2, node 12), m
        122    3.228E+00                                 F               0         Y-component position of node 41 (blade 2, node 12), m
        123    9.249E+01                                 F               0         Z-component position of node 41 (blade 2, node 12), m
        124    8.986E+00                                 F               0         X-component position of node 42 (blade 2, node 13), m
        125    3.937E+00                                 F               0         Y-component position of node 42 (blade 2, node 13), m
        126    8.883E+01                                 F               0         Z-component position of node 42 (blade 2, node 13), m
        127    7.963E+00                                 F               0         X-component position of node 43 (blade 2, node 14), m
        128    4.647E+00                                 F               0         Y-component position of node 43 (blade 2, node 14), m
        129    8.517E+01                                 F               0         Z-component position of node 43 (blade 2, node 14), m
        130    6.940E+00                                 F               0         X-component position of node 44 (blade 2, node 15), m
        131    5.356E+00                                 F               0         Y-component position of node 44 (blade 2, node 15), m
        132    8.151E+01                                 F               0         Z-component position of node 44 (blade 2, node 15), m
        133    5.917E+00                                 F               0         X-component position of node 45 (blade 2, node 16), m
        134    6.066E+00                                 F               0         Y-component position of node 45 (blade 2, node 16), m
        135    7.785E+01                                 F               0         Z-component position of node 45 (blade 2, node 16), m
        136    4.894E+00                                 F               0         X-component position of node 46 (blade 2, node 17), m
        137    6.775E+00                                 F               0         Y-component position of node 46 (blade 2, node 17), m
        138    7.418E+01                                 F               0         Z-component position of node 46 (blade 2, node 17), m
        139    3.871E+00                                 F               0         X-component position of node 47 (blade 2, node 18), m
        140    7.484E+00                                 F               0         Y-component position of node 47 (blade 2, node 18), m
        141    7.052E+01                                 F               0         Z-component position of node 47 (blade 2, node 18), m
        142    2.848E+00                                 F               0         X-component position of node 48 (blade 2, node 19), m
        143    8.194E+00                                 F               0         Y-component position of node 48 (blade 2, node 19), m
        144    6.686E+01                                 F               0         Z-component position of node 48 (blade 2, node 19), m
        145    1.825E+00                                 F               0         X-component position of node 49 (blade 2, node 20), m
        146    8.903E+00                                 F               0         Y-component position of node 49 (blade 2, node 20), m
        147    6.320E+01                                 F               0         Z-component position of node 49 (blade 2, node 20), m
        148    8.023E-01                                 F               0         X-component position of node 50 (blade 2, node 21), m
        149    9.613E+00                                 F               0         Y-component position of node 50 (blade 2, node 21), m
        150    5.954E+01                                 F               0         Z-component position of node 50 (blade 2, node 21), m
        151   -2.209E-01                                 F               0         X-component position of node 51 (blade 2, node 22), m
        152    1.032E+01                                 F               0         Y-component position of node 51 (blade 2, node 22), m
        153    5.587E+01                                 F               0         Z-component position of node 51 (blade 2, node 22), m
        154   -1.244E+00                                 F               0         X-component position of node 52 (blade 2, node 23), m
        155    1.103E+01                                 F               0         Y-component position of node 52 (blade 2, node 23), m
        156    5.221E+01                                 F               0         Z-component position of node 52 (blade 2, node 23), m
        157   -2.267E+00                                 F               0         X-component position of node 53 (blade 2, node 24), m
        158    1.174E+01                                 F               0         Y-component position of node 53 (blade 2, node 24), m
        159    4.855E+01                                 F               0         Z-component position of node 53 (blade 2, node 24), m
        160   -3.290E+00                                 F               0         X-component position of node 54 (blade 2, node 25), m
        161    1.245E+01                                 F               0         Y-component position of node 54 (blade 2, node 25), m
        162    4.489E+01                                 F               0         Z-component position of node 54 (blade 2, node 25), m
        163   -4.313E+00                                 F               0         X-component position of node 55 (blade 2, node 26), m
        164    1.316E+01                                 F               0         Y-component position of node 55 (blade 2, node 26), m
        165    4.123E+01                                 F               0         Z-component position of node 55 (blade 2, node 26), m
        166   -5.336E+00                                 F               0         X-component position of node 56 (blade 2, node 27), m
        167    1.387E+01                                 F               0         Y-component position of node 56 (blade 2, node 27), m
        168    3.757E+01                                 F               0         Z-component position of node 56 (blade 2, node 27), m
        169   -6.203E+00                                 F               0         X-component position of node 57 (blade 2, node 28), m
        170    1.447E+01                                 F               0         Y-component position of node 57 (blade 2, node 28), m
        171    3.446E+01                                 F               0         Z-component position of node 57 (blade 2, node 28), m
        172    2.680E+01                                 F               0         X-component position of node 58 (blade 3, node 1), m
        173   -3.540E+00                                 F               0         Y-component position of node 58 (blade 3, node 1), m
        174    1.526E+02                                 F               0         Z-component position of node 58 (blade 3, node 1), m
        175    2.703E+01                                 F               0         X-component position of node 59 (blade 3, node 2), m
        176   -2.526E+00                                 F               0         Y-component position of node 59 (blade 3, node 2), m
        177    1.535E+02                                 F               0         Z-component position of node 59 (blade 3, node 2), m
        178    3.017E+01                                 F               0         X-component position of node 60 (blade 3, node 3), m
        179    1.126E+01                                 F               0         Y-component position of node 60 (blade 3, node 3), m
        180    1.648E+02                                 F               0         Z-component position of node 60 (blade 3, node 3), m
        181    3.084E+01                                 F               0         X-component position of node 61 (blade 3, node 4), m
        182    1.420E+01                                 F               0         Y-component position of node 61 (blade 3, node 4), m
        183    1.673E+02                                 F               0         Z-component position of node 61 (blade 3, node 4), m
        184    3.151E+01                                 F               0         X-component position of node 62 (blade 3, node 5), m
        185    1.714E+01                                 F               0         Y-component position of node 62 (blade 3, node 5), m
        186    1.697E+02                                 F               0         Z-component position of node 62 (blade 3, node 5), m
        187    3.218E+01                                 F               0         X-component position of node 63 (blade 3, node 6), m
        188    2.008E+01                                 F               0         Y-component position of node 63 (blade 3, node 6), m
        189    1.721E+02                                 F               0         Z-component position of node 63 (blade 3, node 6), m
        190    3.285E+01                                 F               0         X-component position of node 64 (blade 3, node 7), m
        191    2.301E+01                                 F               0         Y-component position of node 64 (blade 3, node 7), m
        192    1.745E+02                                 F               0         Z-component position of node 64 (blade 3, node 7), m
        193    3.352E+01                                 F               0         X-component position of node 65 (blade 3, node 8), m
        194    2.595E+01                                 F               0         Y-component position of node 65 (blade 3, node 8), m
        195    1.770E+02                                 F               0         Z-component position of node 65 (blade 3, node 8), m
        196    3.419E+01                                 F               0         X-component position of node 66 (blade 3, node 9), m
        197    2.889E+01                                 F               0         Y-component position of node 66 (blade 3, node 9), m
        198    1.794E+02                                 F               0         Z-component position of node 66 (blade 3, node 9), m
        199    3.486E+01                                 F               0         X-component position of node 67 (blade 3, node 10), m
        200    3.183E+01                                 F               0         Y-component position of node 67 (blade 3, node 10), m
        201    1.818E+02                                 F               0         Z-component position of node 67 (blade 3, node 10), m
        202    3.553E+01                                 F               0         X-component position of node 68 (blade 3, node 11), m
        203    3.477E+01                                 F               0         Y-component position of node 68 (blade 3, node 11), m
        204    1.842E+02                                 F               0         Z-component position of node 68 (blade 3, node 11), m
        205    3.619E+01                                 F               0         X-component position of node 69 (blade 3, node 12), m
        206    3.770E+01                                 F               0         Y-component position of node 69 (blade 3, node 12), m
        207    1.867E+02                                 F               0         Z-component position of node 69 (blade 3, node 12), m
        208    3.686E+01                                 F               0         X-component position of node 70 (blade 3, node 13), m
        209    4.064E+01                                 F               0         Y-component position of node 70 (blade 3, node 13), m
        210    1.891E+02                                 F               0         Z-component position of node 70 (blade 3, node 13), m
        211    3.753E+01                                 F               0         X-component position of node 71 (blade 3, node 14), m