
Linearized model: Predictions were generated on 06-Feb-2024 at 16:18:08 using OpenFAST, compiled as a 64-bit application using single precision at commit v3.5.1
 linked with  NWTC Subroutine Library; ElastoDyn; InflowWind; AeroDyn; ServoDyn; HydroDyn; MAP++ (<1.20.10>, <Oct-20-2023>)

Description from the FAST input file: CCT-9 Campign 4 model. Input files to be run with OpenFAST 3.5.0. GitHub branch from Lu Wang (https://github.com/luwang00/openfast/tree/dev) compiled on March 7, 2023.

Simulation information:
   Simulation time:                  1001.2500 s
   Rotor Speed:                         1.0420 rad/s
   Azimuth:                             2.8028 rad
   Wind Speed:                         12.0000 m/s
   Number of continuous states:        18
   Number of discrete states:           0
   Number of constraint states:         0
   Number of inputs:                 3988
   Number of outputs:                  36
   Jacobians included in this file?    No

Order of continuous states:
   Row/Column Operating Point                     Rotating Frame? Derivative Order Description
   ---------- ---------------                     --------------- ---------------- -----------
          1    1.231E+01                                 F               2         ED Platform horizontal surge translation DOF (internal DOF index = DOF_Sg), m
          2   -2.571E-01                                 F               2         ED Platform vertical heave translation DOF (internal DOF index = DOF_Hv), m
          3    4.690E-02                                 F               2         ED Platform roll tilt rotation DOF (internal DOF index = DOF_R), rad
          4    1.559E-01                                 F               2         ED Platform pitch tilt rotation DOF (internal DOF index = DOF_P), rad
          5    1.081E+00                                 F               2         ED 1st tower fore-aft bending mode DOF (internal DOF index = DOF_TFA1), m
          6    1.777E-01                                 F               2         ED 1st tower side-to-side bending mode DOF (internal DOF index = DOF_TSS1), m
          7    1.612E-03                                 F               2         ED 2nd tower fore-aft bending mode DOF (internal DOF index = DOF_TFA2), m
          8    7.621E-05                                 F               2         ED 2nd tower side-to-side bending mode DOF (internal DOF index = DOF_TSS2), m
          9    1.232E+00                                 F               2         ED Variable speed generator DOF (internal DOF index = DOF_GeAz), rad
         10    2.925E-04                                 F               2         ED First time derivative of Platform horizontal surge translation DOF (internal DOF index = DOF_Sg), m/s
         11   -1.753E-03                                 F               2         ED First time derivative of Platform vertical heave translation DOF (internal DOF index = DOF_Hv), m/s
         12    1.470E-06                                 F               2         ED First time derivative of Platform roll tilt rotation DOF (internal DOF index = DOF_R), rad/s
         13    8.658E-06                                 F               2         ED First time derivative of Platform pitch tilt rotation DOF (internal DOF index = DOF_P), rad/s
         14   -1.683E-03                                 F               2         ED First time derivative of 1st tower fore-aft bending mode DOF (internal DOF index = DOF_TFA1), m/s
         15    4.010E-05                                 F               2         ED First time derivative of 1st tower side-to-side bending mode DOF (internal DOF index = DOF_TSS1), m/s
         16    5.087E-07                                 F               2         ED First time derivative of 2nd tower fore-aft bending mode DOF (internal DOF index = DOF_TFA2), m/s
         17    1.660E-06                                 F               2         ED First time derivative of 2nd tower side-to-side bending mode DOF (internal DOF index = DOF_TSS2), m/s
         18    1.042E+00                                 F               2         ED First time derivative of Variable speed generator DOF (internal DOF index = DOF_GeAz), rad/s

Order of continuous state derivatives:
   Row/Column Operating Point                     Rotating Frame? Derivative Order Description
   ---------- ---------------                     --------------- ---------------- -----------
          1    2.925E-04                                 F               2         First time derivative of ED Platform horizontal surge translation DOF (internal DOF index = DOF_Sg), m/s
          2   -1.753E-03                                 F               2         First time derivative of ED Platform vertical heave translation DOF (internal DOF index = DOF_Hv), m/s
          3    1.470E-06                                 F               2         First time derivative of ED Platform roll tilt rotation DOF (internal DOF index = DOF_R), rad/s
          4    8.658E-06                                 F               2         First time derivative of ED Platform pitch tilt rotation DOF (internal DOF index = DOF_P), rad/s
          5   -1.683E-03                                 F               2         First time derivative of ED 1st tower fore-aft bending mode DOF (internal DOF index = DOF_TFA1), m/s
          6    4.010E-05                                 F               2         First time derivative of ED 1st tower side-to-side bending mode DOF (internal DOF index = DOF_TSS1), m/s
          7    5.087E-07                                 F               2         First time derivative of ED 2nd tower fore-aft bending mode DOF (internal DOF index = DOF_TFA2), m/s
          8    1.660E-06                                 F               2         First time derivative of ED 2nd tower side-to-side bending mode DOF (internal DOF index = DOF_TSS2), m/s
          9    1.042E+00                                 F               2         First time derivative of ED Variable speed generator DOF (internal DOF index = DOF_GeAz), rad/s
         10    3.089E-04                                 F               2         First time derivative of ED First time derivative of Platform horizontal surge translation DOF (internal DOF index = DOF_Sg), m/s/s
         11    1.334E-03                                 F               2         First time derivative of ED First time derivative of Platform vertical heave translation DOF (internal DOF index = DOF_Hv), m/s/s
         12    4.705E-05                                 F               2         First time derivative of ED First time derivative of Platform roll tilt rotation DOF (internal DOF index = DOF_R), rad/s/s
         13    1.746E-05                                 F               2         First time derivative of ED First time derivative of Platform pitch tilt rotation DOF (internal DOF index = DOF_P), rad/s/s
         14   -4.979E-03                                 F               2         First time derivative of ED First time derivative of 1st tower fore-aft bending mode DOF (internal DOF index = DOF_TFA1), m/s/s
         15   -2.291E-03                                 F               2         First time derivative of ED First time derivative of 1st tower side-to-side bending mode DOF (internal DOF index = DOF_TSS1), m/s/s
         16   -2.829E-05                                 F               2         First time derivative of ED First time derivative of 2nd tower fore-aft bending mode DOF (internal DOF index = DOF_TFA2), m/s/s
         17   -2.098E-06                                 F               2         First time derivative of ED First time derivative of 2nd tower side-to-side bending mode DOF (internal DOF index = DOF_TSS2), m/s/s
         18    1.513E-04                                 F               2         First time derivative of ED First time derivative of Variable speed generator DOF (internal DOF index = DOF_GeAz), rad/s/s

Order of inputs:
     Column   Operating Point                     Rotating Frame? Derivative Order Description
   ---------- ---------------                     --------------- ---------------- -----------
          1   -1.080E+01                                 F               0         IfW X-component position of node 1 (hub), m
          2    0.000E+00                                 F               0         IfW Y-component position of node 1 (hub), m
          3    1.497E+02                                 F               0         IfW Z-component position of node 1 (hub), m
          4    2.441E+01                                 F               0         IfW X-component position of node 2 (blade 1, node 1), m
          5   -9.328E+00                                 F               0         IfW Y-component position of node 2 (blade 1, node 1), m
          6    1.440E+02                                 F               0         IfW Z-component position of node 2 (blade 1, node 1), m
          7    2.407E+01                                 F               0         IfW X-component position of node 3 (blade 1, node 2), m
          8   -9.709E+00                                 F               0         IfW Y-component position of node 3 (blade 1, node 2), m
          9    1.428E+02                                 F               0         IfW Z-component position of node 3 (blade 1, node 2), m
         10    1.941E+01                                 F               0         IfW X-component position of node 4 (blade 1, node 3), m
         11   -1.489E+01                                 F               0         IfW Y-component position of node 4 (blade 1, node 3), m
         12    1.260E+02                                 F               0         IfW Z-component position of node 4 (blade 1, node 3), m
         13    1.842E+01                                 F               0         IfW X-component position of node 5 (blade 1, node 4), m
         14   -1.600E+01                                 F               0         IfW Y-component position of node 5 (blade 1, node 4), m
         15    1.225E+02                                 F               0         IfW Z-component position of node 5 (blade 1, node 4), m
         16    1.742E+01                                 F               0         IfW X-component position of node 6 (blade 1, node 5), m
         17   -1.710E+01                                 F               0         IfW Y-component position of node 6 (blade 1, node 5), m
         18    1.189E+02                                 F               0         IfW Z-component position of node 6 (blade 1, node 5), m
         19    1.643E+01                                 F               0         IfW X-component position of node 7 (blade 1, node 6), m
         20   -1.821E+01                                 F               0         IfW Y-component position of node 7 (blade 1, node 6), m
         21    1.153E+02                                 F               0         IfW Z-component position of node 7 (blade 1, node 6), m
         22    1.543E+01                                 F               0         IfW X-component position of node 8 (blade 1, node 7), m
         23   -1.931E+01                                 F               0         IfW Y-component position of node 8 (blade 1, node 7), m
         24    1.117E+02                                 F               0         IfW Z-component position of node 8 (blade 1, node 7), m
         25    1.444E+01                                 F               0         IfW X-component position of node 9 (blade 1, node 8), m
         26   -2.042E+01                                 F               0         IfW Y-component position of node 9 (blade 1, node 8), m
         27    1.082E+02                                 F               0         IfW Z-component position of node 9 (blade 1, node 8), m
         28    1.345E+01                                 F               0         IfW X-component position of node 10 (blade 1, node 9), m
         29   -2.152E+01                                 F               0         IfW Y-component position of node 10 (blade 1, node 9), m
         30    1.046E+02                                 F               0         IfW Z-component position of node 10 (blade 1, node 9), m
         31    1.245E+01                                 F               0         IfW X-component position of node 11 (blade 1, node 10), m
         32   -2.263E+01                                 F               0         IfW Y-component position of node 11 (blade 1, node 10), m
         33    1.010E+02                                 F               0         IfW Z-component position of node 11 (blade 1, node 10), m
         34    1.146E+01                                 F               0         IfW X-component position of node 12 (blade 1, node 11), m
         35   -2.373E+01                                 F               0         IfW Y-component position of node 12 (blade 1, node 11), m
         36    9.747E+01                                 F               0         IfW Z-component position of node 12 (blade 1, node 11), m
         37    1.047E+01                                 F               0         IfW X-component position of node 13 (blade 1, node 12), m
         38   -2.484E+01                                 F               0         IfW Y-component position of node 13 (blade 1, node 12), m
         39    9.389E+01                                 F               0         IfW Z-component position of node 13 (blade 1, node 12), m
         40    9.474E+00                                 F               0         IfW X-component position of node 14 (blade 1, node 13), m
         41   -2.594E+01                                 F               0         IfW Y-component position of node 14 (blade 1, node 13), m
         42    9.032E+01                                 F               0         IfW Z-component position of node 14 (blade 1, node 13), m
         43    8.480E+00                                 F               0         IfW X-component position of node 15 (blade 1, node 14), m
         44   -2.704E+01                                 F               0         IfW Y-component position of node 15 (blade 1, node 14), m
         45    8.675E+01                                 F               0         IfW Z-component position of node 15 (blade 1, node 14), m
         46    7.487E+00                                 F               0         IfW X-component position of node 16 (blade 1, node 15), m
         47   -2.815E+01                                 F               0         IfW Y-component position of node 16 (blade 1, node 15), m
         48    8.318E+01                                 F               0         IfW Z-component position of node 16 (blade 1, node 15), m
         49    6.493E+00                                 F               0         IfW X-component position of node 17 (blade 1, node 16), m
         50   -2.925E+01                                 F               0         IfW Y-component position of node 17 (blade 1, node 16), m
         51    7.961E+01                                 F               0         IfW Z-component position of node 17 (blade 1, node 16), m
         52    5.500E+00                                 F               0         IfW X-component position of node 18 (blade 1, node 17), m
         53   -3.036E+01                                 F               0         IfW Y-component position of node 18 (blade 1, node 17), m
         54    7.604E+01                                 F               0         IfW Z-component position of node 18 (blade 1, node 17), m
         55    4.506E+00                                 F               0         IfW X-component position of node 19 (blade 1, node 18), m
         56   -3.146E+01                                 F               0         IfW Y-component position of node 19 (blade 1, node 18), m
         57    7.247E+01                                 F               0         IfW Z-component position of node 19 (blade 1, node 18), m
         58    3.513E+00                                 F               0         IfW X-component position of node 20 (blade 1, node 19), m
         59   -3.257E+01                                 F               0         IfW Y-component position of node 20 (blade 1, node 19), m
         60    6.890E+01                                 F               0         IfW Z-component position of node 20 (blade 1, node 19), m
         61    2.519E+00                                 F               0         IfW X-component position of node 21 (blade 1, node 20), m
         62   -3.367E+01                                 F               0         IfW Y-component position of node 21 (blade 1, node 20), m
         63    6.533E+01                                 F               0         IfW Z-component position of node 21 (blade 1, node 20), m
         64    1.526E+00                                 F               0         IfW X-component position of node 22 (blade 1, node 21), m
         65   -3.478E+01                                 F               0         IfW Y-component position of node 22 (blade 1, node 21), m
         66    6.176E+01                                 F               0         IfW Z-component position of node 22 (blade 1, node 21), m
         67    5.319E-01                                 F               0         IfW X-component position of node 23 (blade 1, node 22), m
         68   -3.588E+01                                 F               0         IfW Y-component position of node 23 (blade 1, node 22), m
         69    5.818E+01                                 F               0         IfW Z-component position of node 23 (blade 1, node 22), m
         70   -4.615E-01                                 F               0         IfW X-component position of node 24 (blade 1, node 23), m
         71   -3.699E+01                                 F               0         IfW Y-component position of node 24 (blade 1, node 23), m
         72    5.461E+01                                 F               0         IfW Z-component position of node 24 (blade 1, node 23), m
         73   -1.455E+00                                 F               0         IfW X-component position of node 25 (blade 1, node 24), m
         74   -3.809E+01                                 F               0         IfW Y-component position of node 25 (blade 1, node 24), m
         75    5.104E+01                                 F               0         IfW Z-component position of node 25 (blade 1, node 24), m
         76   -2.448E+00                                 F               0         IfW X-component position of node 26 (blade 1, node 25), m
         77   -3.920E+01                                 F               0         IfW Y-component position of node 26 (blade 1, node 25), m
         78    4.747E+01                                 F               0         IfW Z-component position of node 26 (blade 1, node 25), m
         79   -3.442E+00                                 F               0         IfW X-component position of node 27 (blade 1, node 26), m
         80   -4.030E+01                                 F               0         IfW Y-component position of node 27 (blade 1, node 26), m
         81    4.390E+01                                 F               0         IfW Z-component position of node 27 (blade 1, node 26), m
         82   -4.436E+00                                 F               0         IfW X-component position of node 28 (blade 1, node 27), m
         83   -4.141E+01                                 F               0         IfW Y-component position of node 28 (blade 1, node 27), m
         84    4.033E+01                                 F               0         IfW Z-component position of node 28 (blade 1, node 27), m
         85   -5.278E+00                                 F               0         IfW X-component position of node 29 (blade 1, node 28), m
         86   -4.234E+01                                 F               0         IfW Y-component position of node 29 (blade 1, node 28), m
         87    3.730E+01                                 F               0         IfW Z-component position of node 29 (blade 1, node 28), m
         88    2.617E+01                                 F               0         IfW X-component position of node 30 (blade 2, node 1), m
         89   -2.356E+00                                 F               0         IfW Y-component position of node 30 (blade 2, node 1), m
         90    1.504E+02                                 F               0         IfW Z-component position of node 30 (blade 2, node 1), m
         91    2.625E+01                                 F               0         IfW X-component position of node 31 (blade 2, node 2), m
         92   -1.058E+00                                 F               0         IfW Y-component position of node 31 (blade 2, node 2), m
         93    1.507E+02                                 F               0         IfW Z-component position of node 31 (blade 2, node 2), m
         94    2.734E+01                                 F               0         IfW X-component position of node 32 (blade 2, node 3), m
         95    1.660E+01                                 F               0         IfW Y-component position of node 32 (blade 2, node 3), m
         96    1.547E+02                                 F               0         IfW Z-component position of node 32 (blade 2, node 3), m
         97    2.758E+01                                 F               0         IfW X-component position of node 33 (blade 2, node 4), m
         98    2.036E+01                                 F               0         IfW Y-component position of node 33 (blade 2, node 4), m
         99    1.556E+02                                 F               0         IfW Z-component position of node 33 (blade 2, node 4), m
        100    2.781E+01                                 F               0         IfW X-component position of node 34 (blade 2, node 5), m
        101    2.412E+01                                 F               0         IfW Y-component position of node 34 (blade 2, node 5), m
        102    1.565E+02                                 F               0         IfW Z-component position of node 34 (blade 2, node 5), m
        103    2.804E+01                                 F               0         IfW X-component position of node 35 (blade 2, node 6), m
        104    2.789E+01                                 F               0         IfW Y-component position of node 35 (blade 2, node 6), m
        105    1.573E+02                                 F               0         IfW Z-component position of node 35 (blade 2, node 6), m
        106    2.828E+01                                 F               0         IfW X-component position of node 36 (blade 2, node 7), m
        107    3.165E+01                                 F               0         IfW Y-component position of node 36 (blade 2, node 7), m
        108    1.582E+02                                 F               0         IfW Z-component position of node 36 (blade 2, node 7), m
        109    2.851E+01                                 F               0         IfW X-component position of node 37 (blade 2, node 8), m
        110    3.541E+01                                 F               0         IfW Y-component position of node 37 (blade 2, node 8), m
        111    1.591E+02                                 F               0         IfW Z-component position of node 37 (blade 2, node 8), m
        112    2.874E+01                                 F               0         IfW X-component position of node 38 (blade 2, node 9), m
        113    3.917E+01                                 F               0         IfW Y-component position of node 38 (blade 2, node 9), m
        114    1.599E+02                                 F               0         IfW Z-component position of node 38 (blade 2, node 9), m
        115    2.897E+01                                 F               0         IfW X-component position of node 39 (blade 2, node 10), m
        116    4.294E+01                                 F               0         IfW Y-component position of node 39 (blade 2, node 10), m
        117    1.608E+02                                 F               0         IfW Z-component position of node 39 (blade 2, node 10), m
        118    2.921E+01                                 F               0         IfW X-component position of node 40 (blade 2, node 11), m
        119    4.670E+01                                 F               0         IfW Y-component position of node 40 (blade 2, node 11), m
        120    1.617E+02                                 F               0         IfW Z-component position of node 40 (blade 2, node 11), m
        121    2.944E+01                                 F               0         IfW X-component position of node 41 (blade 2, node 12), m
        122    5.046E+01                                 F               0         IfW Y-component position of node 41 (blade 2, node 12), m
        123    1.625E+02                                 F               0         IfW Z-component position of node 41 (blade 2, node 12), m
        124    2.967E+01                                 F               0         IfW X-component position of node 42 (blade 2, node 13), m
        125    5.422E+01                                 F               0         IfW Y-component position of node 42 (blade 2, node 13), m
        126    1.634E+02                                 F               0         IfW Z-component position of node 42 (blade 2, node 13), m
        127    2.991E+01                                 F               0         IfW X-component position of node 43 (blade 2, node 14), m
        128    5.799E+01                                 F               0         IfW Y-component position of node 43 (blade 2, node 14), m
        129    1.643E+02                                 F               0         IfW Z-component position of node 43 (blade 2, node 14), m
        130    3.014E+01                                 F               0         IfW X-component position of node 44 (blade 2, node 15), m
        131    6.175E+01                                 F               0         IfW Y-component position of node 44 (blade 2, node 15), m
        132    1.651E+02                                 F               0         IfW Z-component position of node 44 (blade 2, node 15), m
        133    3.037E+01                                 F               0         IfW X-component position of node 45 (blade 2, node 16), m
        134    6.551E+01                                 F               0         IfW Y-component position of node 45 (blade 2, node 16), m
        135    1.660E+02                                 F               0         IfW Z-component position of node 45 (blade 2, node 16), m
        136    3.060E+01                                 F               0         IfW X-component position of node 46 (blade 2, node 17), m
        137    6.927E+01                                 F               0         IfW Y-component position of node 46 (blade 2, node 17), m
        138    1.669E+02                                 F               0         IfW Z-component position of node 46 (blade 2, node 17), m
        139    3.084E+01                                 F               0         IfW X-component position of node 47 (blade 2, node 18), m
        140    7.303E+01                                 F               0         IfW Y-component position of node 47 (blade 2, node 18), m
        141    1.677E+02                                 F               0         IfW Z-component position of node 47 (blade 2, node 18), m
        142    3.107E+01                                 F               0         IfW X-component position of node 48 (blade 2, node 19), m
        143    7.680E+01                                 F               0         IfW Y-component position of node 48 (blade 2, node 19), m
        144    1.686E+02                                 F               0         IfW Z-component position of node 48 (blade 2, node 19), m
        145    3.130E+01                                 F               0         IfW X-component position of node 49 (blade 2, node 20), m
        146    8.056E+01                                 F               0         IfW Y-component position of node 49 (blade 2, node 20), m
        147    1.695E+02                                 F               0         IfW Z-component position of node 49 (blade 2, node 20), m
        148    3.154E+01                                 F               0         IfW X-component position of node 50 (blade 2, node 21), m
        149    8.432E+01                                 F               0         IfW Y-component position of node 50 (blade 2, node 21), m
        150    1.703E+02                                 F               0         IfW Z-component position of node 50 (blade 2, node 21), m
        151    3.177E+01                                 F               0         IfW X-component position of node 51 (blade 2, node 22), m
        152    8.808E+01                                 F               0         IfW Y-component position of node 51 (blade 2, node 22), m
        153    1.712E+02                                 F               0         IfW Z-component position of node 51 (blade 2, node 22), m
        154    3.200E+01                                 F               0         IfW X-component position of node 52 (blade 2, node 23), m
        155    9.185E+01                                 F               0         IfW Y-component position of node 52 (blade 2, node 23), m