
Linearized model: Predictions were generated on 06-Feb-2024 at 16:18:08 using OpenFAST, compiled as a 64-bit application using single precision at commit v3.5.1
 linked with  NWTC Subroutine Library; ElastoDyn; InflowWind; AeroDyn; ServoDyn; HydroDyn; MAP++ (<1.20.10>, <Oct-20-2023>)

Description from the FAST input file: CCT-9 Campign 4 model. Input files to be run with OpenFAST 3.5.0. GitHub branch from Lu Wang (https://github.com/luwang00/openfast/tree/dev) compiled on March 7, 2023.

Simulation information:
   Simulation time:                  1005.4750 s
   Rotor Speed:                         1.0418 rad/s
   Azimuth:                             0.9221 rad
   Wind Speed:                         12.0000 m/s
   Number of continuous states:        18
   Number of discrete states:           0
   Number of constraint states:         0
   Number of inputs:                 1890
   Number of outputs:                  19
   Jacobians included in this file?    No

Order of continuous states:
   Row/Column Operating Point                     Rotating Frame? Derivative Order Description
   ---------- ---------------                     --------------- ---------------- -----------
          1    1.231E+01                                 F               2         Platform horizontal surge translation DOF (internal DOF index = DOF_Sg), m
          2   -2.530E-01                                 F               2         Platform vertical heave translation DOF (internal DOF index = DOF_Hv), m
          3    4.695E-02                                 F               2         Platform roll tilt rotation DOF (internal DOF index = DOF_R), rad
          4    1.558E-01                                 F               2         Platform pitch tilt rotation DOF (internal DOF index = DOF_P), rad
          5    1.081E+00                                 F               2         1st tower fore-aft bending mode DOF (internal DOF index = DOF_TFA1), m
          6    1.753E-01                                 F               2         1st tower side-to-side bending mode DOF (internal DOF index = DOF_TSS1), m
          7    1.606E-03                                 F               2         2nd tower fore-aft bending mode DOF (internal DOF index = DOF_TFA2), m
          8    7.876E-05                                 F               2         2nd tower side-to-side bending mode DOF (internal DOF index = DOF_TSS2), m
          9    5.634E+00                                 F               2         Variable speed generator DOF (internal DOF index = DOF_GeAz), rad
         10    2.215E-04                                 F               2         First time derivative of Platform horizontal surge translation DOF (internal DOF index = DOF_Sg), m/s
         11    3.770E-03                                 F               2         First time derivative of Platform vertical heave translation DOF (internal DOF index = DOF_Hv), m/s
         12   -4.347E-05                                 F               2         First time derivative of Platform roll tilt rotation DOF (internal DOF index = DOF_R), rad/s
         13    1.027E-05                                 F               2         First time derivative of Platform pitch tilt rotation DOF (internal DOF index = DOF_P), rad/s
         14   -1.717E-03                                 F               2         First time derivative of 1st tower fore-aft bending mode DOF (internal DOF index = DOF_TFA1), m/s
         15    2.144E-03                                 F               2         First time derivative of 1st tower side-to-side bending mode DOF (internal DOF index = DOF_TSS1), m/s
         16   -1.028E-05                                 F               2         First time derivative of 2nd tower fore-aft bending mode DOF (internal DOF index = DOF_TFA2), m/s
         17   -1.216E-06                                 F               2         First time derivative of 2nd tower side-to-side bending mode DOF (internal DOF index = DOF_TSS2), m/s
         18    1.042E+00                                 F               2         First time derivative of Variable speed generator DOF (internal DOF index = DOF_GeAz), rad/s

Order of continuous state derivatives:
   Row/Column Operating Point                     Rotating Frame? Derivative Order Description
   ---------- ---------------                     --------------- ---------------- -----------
          1    2.215E-04                                 F               2         First time derivative of Platform horizontal surge translation DOF (internal DOF index = DOF_Sg), m/s
          2    3.770E-03                                 F               2         First time derivative of Platform vertical heave translation DOF (internal DOF index = DOF_Hv), m/s
          3   -4.347E-05                                 F               2         First time derivative of Platform roll tilt rotation DOF (internal DOF index = DOF_R), rad/s
          4    1.027E-05                                 F               2         First time derivative of Platform pitch tilt rotation DOF (internal DOF index = DOF_P), rad/s
          5   -1.717E-03                                 F               2         First time derivative of 1st tower fore-aft bending mode DOF (internal DOF index = DOF_TFA1), m/s
          6    2.144E-03                                 F               2         First time derivative of 1st tower side-to-side bending mode DOF (internal DOF index = DOF_TSS1), m/s
          7   -1.028E-05                                 F               2         First time derivative of 2nd tower fore-aft bending mode DOF (internal DOF index = DOF_TFA2), m/s
          8   -1.216E-06                                 F               2         First time derivative of 2nd tower side-to-side bending mode DOF (internal DOF index = DOF_TSS2), m/s
          9    1.042E+00                                 F               2         First time derivative of Variable speed generator DOF (internal DOF index = DOF_GeAz), rad/s
         10    3.526E-04                                 F               2         First time derivative of First time derivative of Platform horizontal surge translation DOF (internal DOF index = DOF_Sg), m/s/s
         11    1.257E-03                                 F               2         First time derivative of First time derivative of Platform vertical heave translation DOF (internal DOF index = DOF_Hv), m/s/s
         12   -6.943E-06                                 F               2         First time derivative of First time derivative of Platform roll tilt rotation DOF (internal DOF index = DOF_R), rad/s/s
         13    1.966E-05                                 F               2         First time derivative of First time derivative of Platform pitch tilt rotation DOF (internal DOF index = DOF_P), rad/s/s
         14   -2.603E-03                                 F               2         First time derivative of First time derivative of 1st tower fore-aft bending mode DOF (internal DOF index = DOF_TFA1), m/s/s
         15   -1.545E-04                                 F               2         First time derivative of First time derivative of 1st tower side-to-side bending mode DOF (internal DOF index = DOF_TSS1), m/s/s
         16   -8.906E-06                                 F               2         First time derivative of First time derivative of 2nd tower fore-aft bending mode DOF (internal DOF index = DOF_TFA2), m/s/s
         17   -3.255E-06                                 F               2         First time derivative of First time derivative of 2nd tower side-to-side bending mode DOF (internal DOF index = DOF_TSS2), m/s/s
         18    5.052E-06                                 F               2         First time derivative of First time derivative of Variable speed generator DOF (internal DOF index = DOF_GeAz), rad/s/s

Order of inputs:
     Column   Operating Point                     Rotating Frame? Derivative Order Description
   ---------- ---------------                     --------------- ---------------- -----------
          1    1.506E+02                                 F               0         Blade 1 X force, node 1, N
          2    1.099E+02                                 F               0         Blade 1 Y force, node 1, N
          3    1.245E+02                                 F               0         Blade 1 Z force, node 1, N
          4    5.168E+02                                 F               0         Blade 1 X force, node 2, N
          5    1.886E+02                                 F               0         Blade 1 Y force, node 2, N
          6    1.407E+02                                 F               0         Blade 1 Z force, node 2, N
          7    5.963E+02                                 F               0         Blade 1 X force, node 3, N
          8    1.378E+02                                 F               0         Blade 1 Y force, node 3, N
          9    4.113E+01                                 F               0         Blade 1 Z force, node 3, N
         10    7.323E+02                                 F               0         Blade 1 X force, node 4, N
         11    1.119E+02                                 F               0         Blade 1 Y force, node 4, N
         12   -3.669E+01                                 F               0         Blade 1 Z force, node 4, N
         13    8.682E+02                                 F               0         Blade 1 X force, node 5, N
         14    8.599E+01                                 F               0         Blade 1 Y force, node 5, N
         15   -1.145E+02                                 F               0         Blade 1 Z force, node 5, N
         16    1.004E+03                                 F               0         Blade 1 X force, node 6, N
         17    6.006E+01                                 F               0         Blade 1 Y force, node 6, N
         18   -1.923E+02                                 F               0         Blade 1 Z force, node 6, N
         19    1.140E+03                                 F               0         Blade 1 X force, node 7, N
         20    3.414E+01                                 F               0         Blade 1 Y force, node 7, N
         21   -2.701E+02                                 F               0         Blade 1 Z force, node 7, N
         22    1.276E+03                                 F               0         Blade 1 X force, node 8, N
         23    8.208E+00                                 F               0         Blade 1 Y force, node 8, N
         24   -3.479E+02                                 F               0         Blade 1 Z force, node 8, N
         25    1.412E+03                                 F               0         Blade 1 X force, node 9, N
         26   -1.772E+01                                 F               0         Blade 1 Y force, node 9, N
         27   -4.258E+02                                 F               0         Blade 1 Z force, node 9, N
         28    1.548E+03                                 F               0         Blade 1 X force, node 10, N
         29   -4.365E+01                                 F               0         Blade 1 Y force, node 10, N
         30   -5.036E+02                                 F               0         Blade 1 Z force, node 10, N
         31    1.684E+03                                 F               0         Blade 1 X force, node 11, N
         32   -6.957E+01                                 F               0         Blade 1 Y force, node 11, N
         33   -5.814E+02                                 F               0         Blade 1 Z force, node 11, N
         34    1.820E+03                                 F               0         Blade 1 X force, node 12, N
         35   -9.550E+01                                 F               0         Blade 1 Y force, node 12, N
         36   -6.592E+02                                 F               0         Blade 1 Z force, node 12, N
         37    1.956E+03                                 F               0         Blade 1 X force, node 13, N
         38   -1.214E+02                                 F               0         Blade 1 Y force, node 13, N
         39   -7.370E+02                                 F               0         Blade 1 Z force, node 13, N
         40    2.092E+03                                 F               0         Blade 1 X force, node 14, N
         41   -1.474E+02                                 F               0         Blade 1 Y force, node 14, N
         42   -8.148E+02                                 F               0         Blade 1 Z force, node 14, N
         43    2.228E+03                                 F               0         Blade 1 X force, node 15, N
         44   -1.733E+02                                 F               0         Blade 1 Y force, node 15, N
         45   -8.926E+02                                 F               0         Blade 1 Z force, node 15, N
         46    2.364E+03                                 F               0         Blade 1 X force, node 16, N
         47   -1.992E+02                                 F               0         Blade 1 Y force, node 16, N
         48   -9.705E+02                                 F               0         Blade 1 Z force, node 16, N
         49    2.903E+03                                 F               0         Blade 1 X force, node 17, N
         50   -2.601E+02                                 F               0         Blade 1 Y force, node 17, N
         51   -1.215E+03                                 F               0         Blade 1 Z force, node 17, N
         52    2.246E+03                                 F               0         Blade 1 X force, node 18, N
         53   -1.957E+02                                 F               0         Blade 1 Y force, node 18, N
         54   -9.320E+02                                 F               0         Blade 1 Z force, node 18, N
         55    2.803E+03                                 F               0         Blade 1 X force, node 19, N
         56   -2.308E+02                                 F               0         Blade 1 Y force, node 19, N
         57   -1.143E+03                                 F               0         Blade 1 Z force, node 19, N
         58    2.427E+03                                 F               0         Blade 1 X force, node 20, N
         59   -1.894E+02                                 F               0         Blade 1 Y force, node 20, N
         60   -9.735E+02                                 F               0         Blade 1 Z force, node 20, N
         61    3.644E+03                                 F               0         Blade 1 X force, node 21, N
         62   -2.670E+02                                 F               0         Blade 1 Y force, node 21, N
         63   -1.435E+03                                 F               0         Blade 1 Z force, node 21, N
         64    3.267E+03                                 F               0         Blade 1 X force, node 22, N
         65   -2.238E+02                                 F               0         Blade 1 Y force, node 22, N
         66   -1.263E+03                                 F               0         Blade 1 Z force, node 22, N
         67    3.401E+03                                 F               0         Blade 1 X force, node 23, N
         68   -2.191E+02                                 F               0         Blade 1 Y force, node 23, N
         69   -1.294E+03                                 F               0         Blade 1 Z force, node 23, N
         70    3.596E+03                                 F               0         Blade 1 X force, node 24, N
         71   -2.180E+02                                 F               0         Blade 1 Y force, node 24, N
         72   -1.347E+03                                 F               0         Blade 1 Z force, node 24, N
         73    3.728E+03                                 F               0         Blade 1 X force, node 25, N
         74   -2.121E+02                                 F               0         Blade 1 Y force, node 25, N
         75   -1.376E+03                                 F               0         Blade 1 Z force, node 25, N
         76    3.881E+03                                 F               0         Blade 1 X force, node 26, N
         77   -2.072E+02                                 F               0         Blade 1 Y force, node 26, N
         78   -1.411E+03                                 F               0         Blade 1 Z force, node 26, N
         79    4.700E+03                                 F               0         Blade 1 X force, node 27, N
         80   -2.349E+02                                 F               0         Blade 1 Y force, node 27, N
         81   -1.685E+03                                 F               0         Blade 1 Z force, node 27, N
         82    3.519E+03                                 F               0         Blade 1 X force, node 28, N
         83   -1.644E+02                                 F               0         Blade 1 Y force, node 28, N
         84   -1.244E+03                                 F               0         Blade 1 Z force, node 28, N
         85    4.338E+03                                 F               0         Blade 1 X force, node 29, N
         86   -1.912E+02                                 F               0         Blade 1 Y force, node 29, N
         87   -1.516E+03                                 F               0         Blade 1 Z force, node 29, N
         88    3.718E+03                                 F               0         Blade 1 X force, node 30, N
         89   -1.547E+02                                 F               0         Blade 1 Y force, node 30, N
         90   -1.285E+03                                 F               0         Blade 1 Z force, node 30, N
         91    5.414E+03                                 F               0         Blade 1 X force, node 31, N
         92   -2.102E+02                                 F               0         Blade 1 Y force, node 31, N
         93   -1.849E+03                                 F               0         Blade 1 Z force, node 31, N
         94    4.793E+03                                 F               0         Blade 1 X force, node 32, N
         95   -1.730E+02                                 F               0         Blade 1 Y force, node 32, N
         96   -1.617E+03                                 F               0         Blade 1 Z force, node 32, N
         97    4.943E+03                                 F               0         Blade 1 X force, node 33, N
         98   -1.665E+02                                 F               0         Blade 1 Y force, node 33, N
         99   -1.649E+03                                 F               0         Blade 1 Z force, node 33, N
        100    5.094E+03                                 F               0         Blade 1 X force, node 34, N
        101   -1.600E+02                                 F               0         Blade 1 Y force, node 34, N
        102   -1.682E+03                                 F               0         Blade 1 Z force, node 34, N
        103    5.245E+03                                 F               0         Blade 1 X force, node 35, N
        104   -1.531E+02                                 F               0         Blade 1 Y force, node 35, N
        105   -1.714E+03                                 F               0         Blade 1 Z force, node 35, N
        106    5.395E+03                                 F               0         Blade 1 X force, node 36, N
        107   -1.461E+02                                 F               0         Blade 1 Y force, node 36, N
        108   -1.746E+03                                 F               0         Blade 1 Z force, node 36, N
        109    6.490E+03                                 F               0         Blade 1 X force, node 37, N
        110   -1.620E+02                                 F               0         Blade 1 Y force, node 37, N
        111   -2.079E+03                                 F               0         Blade 1 Z force, node 37, N
        112    4.751E+03                                 F               0         Blade 1 X force, node 38, N
        113   -1.091E+02                                 F               0         Blade 1 Y force, node 38, N
        114   -1.508E+03                                 F               0         Blade 1 Z force, node 38, N
        115    5.847E+03                                 F               0         Blade 1 X force, node 39, N
        116   -1.247E+02                                 F               0         Blade 1 Y force, node 39, N
        117   -1.841E+03                                 F               0         Blade 1 Z force, node 39, N
        118    5.006E+03                                 F               0         Blade 1 X force, node 40, N
        119   -9.898E+01                                 F               0         Blade 1 Y force, node 40, N
        120   -1.564E+03                                 F               0         Blade 1 Z force, node 40, N
        121    7.141E+03                                 F               0         Blade 1 X force, node 41, N
        122   -1.286E+02                                 F               0         Blade 1 Y force, node 41, N
        123   -2.212E+03                                 F               0         Blade 1 Z force, node 41, N
        124    6.297E+03                                 F               0         Blade 1 X force, node 42, N
        125   -1.024E+02                                 F               0         Blade 1 Y force, node 42, N
        126   -1.934E+03                                 F               0         Blade 1 Z force, node 42, N
        127    6.445E+03                                 F               0         Blade 1 X force, node 43, N
        128   -9.466E+01                                 F               0         Blade 1 Y force, node 43, N
        129   -1.964E+03                                 F               0         Blade 1 Z force, node 43, N
        130    6.628E+03                                 F               0         Blade 1 X force, node 44, N
        131   -8.736E+01                                 F               0         Blade 1 Y force, node 44, N
        132   -2.005E+03                                 F               0         Blade 1 Z force, node 44, N
        133    6.706E+03                                 F               0         Blade 1 X force, node 45, N
        134   -7.859E+01                                 F               0         Blade 1 Y force, node 45, N
        135   -2.014E+03                                 F               0         Blade 1 Z force, node 45, N
        136    6.890E+03                                 F               0         Blade 1 X force, node 46, N
        137   -7.112E+01                                 F               0         Blade 1 Y force, node 46, N
        138   -2.054E+03                                 F               0         Blade 1 Z force, node 46, N
        139    8.274E+03                                 F               0         Blade 1 X force, node 47, N
        140   -7.357E+01                                 F               0         Blade 1 Y force, node 47, N
        141   -2.449E+03                                 F               0         Blade 1 Z force, node 47, N
        142    5.949E+03                                 F               0         Blade 1 X force, node 48, N
        143   -4.476E+01                                 F               0         Blade 1 Y force, node 48, N
        144   -1.748E+03                                 F               0         Blade 1 Z force, node 48, N
        145    7.332E+03                                 F               0         Blade 1 X force, node 49, N
        146   -4.698E+01                                 F               0         Blade 1 Y force, node 49, N
        147   -2.142E+03                                 F               0         Blade 1 Z force, node 49, N
        148    6.288E+03                                 F               0         Blade 1 X force, node 50, N
        149   -3.344E+01                                 F               0         Blade 1 Y force, node 50, N
        150   -1.827E+03                                 F               0         Blade 1 Z force, node 50, N
        151    8.817E+03                                 F               0         Blade 1 X force, node 51, N
        152   -3.607E+01                                 F               0         Blade 1 Y force, node 51, N
        153   -2.545E+03                                 F               0         Blade 1 Z force, node 51, N
        154    7.775E+03                                 F               0         Blade 1 X force, node 52, N
        155   -2.250E+01                                 F               0         Blade 1 Y force, node 52, N
        156   -2.230E+03                                 F               0         Blade 1 Z force, node 52, N
        157    7.924E+03                                 F               0         Blade 1 X force, node 53, N
        158   -1.433E+01                                 F               0         Blade 1 Y force, node 53, N
        159   -2.260E+03                                 F               0         Blade 1 Z force, node 53, N
        160    8.162E+03                                 F               0         Blade 1 X force, node 54, N
        161   -6.163E+00                                 F               0         Blade 1 Y force, node 54, N
        162   -2.315E+03                                 F               0         Blade 1 Z force, node 54, N
        163    8.131E+03                                 F               0         Blade 1 X force, node 55, N
        164    2.228E+00                                 F               0         Blade 1 Y force, node 55, N
        165   -2.293E+03                                 F               0         Blade 1 Z force, node 55, N
        166    8.368E+03                                 F               0         Blade 1 X force, node 56, N
        167    1.054E+01                                 F               0         Blade 1 Y force, node 56, N
        168   -2.347E+03                                 F               0         Blade 1 Z force, node 56, N
        169    1.006E+04                                 F               0         Blade 1 X force, node 57, N
        170    2.297E+01                                 F               0         Blade 1 Y force, node 57, N
        171   -2.806E+03                                 F               0         Blade 1 Z force, node 57, N
        172    7.121E+03                                 F               0         Blade 1 X force, node 58, N
        173    2.324E+01                                 F               0         Blade 1 Y force, node 58, N
        174   -1.976E+03                                 F               0         Blade 1 Z force, node 58, N
        175    8.810E+03                                 F               0         Blade 1 X force, node 59, N
        176    3.578E+01                                 F               0         Blade 1 Y force, node 59, N
        177   -2.434E+03                                 F               0         Blade 1 Z force, node 59, N
        178    7.585E+03                                 F               0         Blade 1 X force, node 60, N
        179    3.680E+01                                 F               0         Blade 1 Y force, node 60, N
        180   -2.086E+03                                 F               0         Blade 1 Z force, node 60, N
        181    1.048E+04                                 F               0         Blade 1 X force, node 61, N
        182    6.023E+01                                 F               0         Blade 1 Y force, node 61, N
        183   -2.868E+03                                 F               0         Blade 1 Z force, node 61, N
        184    9.248E+03                                 F               0         Blade 1 X force, node 62, N
        185    6.143E+01                                 F               0         Blade 1 Y force, node 62, N
        186   -2.519E+03                                 F               0         Blade 1 Z force, node 62, N
        187    9.393E+03                                 F               0         Blade 1 X force, node 63, N
        188    7.010E+01                                 F               0         Blade 1 Y force, node 63, N
        189   -2.546E+03                                 F               0         Blade 1 Z force, node 63, N
        190    9.697E+03                                 F               0         Blade 1 X force, node 64, N
        191    8.011E+01                                 F               0         Blade 1 Y force, node 64, N
        192   -2.617E+03                                 F               0         Blade 1 Z force, node 64, N
        193    9.526E+03                                 F               0         Blade 1 X force, node 65, N
        194    8.597E+01                                 F               0         Blade 1 Y force, node 65, N
        195   -2.560E+03                                 F               0         Blade 1 Z force, node 65, N
        196    9.834E+03                                 F               0         Blade 1 X force, node 66, N
        197    9.591E+01                                 F               0         Blade 1 Y force, node 66, N