
Linearized model: Predictions were generated on 06-Feb-2024 at 16:18:08 using OpenFAST, compiled as a 64-bit application using single precision at commit v3.5.1
 linked with  NWTC Subroutine Library; ElastoDyn; InflowWind; AeroDyn; ServoDyn; HydroDyn; MAP++ (<1.20.10>, <Oct-20-2023>)

Description from the FAST input file: CCT-9 Campign 4 model. Input files to be run with OpenFAST 3.5.0. GitHub branch from Lu Wang (https://github.com/luwang00/openfast/tree/dev) compiled on March 7, 2023.

Simulation information:
   Simulation time:                  1005.4750 s
   Rotor Speed:                         1.0418 rad/s
   Azimuth:                             0.9221 rad
   Wind Speed:                         12.0000 m/s
   Number of continuous states:         0
   Number of discrete states:           0
   Number of constraint states:         0
   Number of inputs:                 1746
   Number of outputs:                   4
   Jacobians included in this file?    No

Order of inputs:
     Column   Operating Point                     Rotating Frame? Derivative Order Description
   ---------- ---------------                     --------------- ---------------- -----------
          1    1.513E+01                                 F               0         Tower X translation displacement, node 1, m
          2   -1.424E+00                                 F               0         Tower Y translation displacement, node 1, m
          3   -4.912E-01                                 F               0         Tower Z translation displacement, node 1, m
          4    1.704E+01                                 F               0         Tower X translation displacement, node 2, m
          5   -2.005E+00                                 F               0         Tower Y translation displacement, node 2, m
          6   -6.539E-01                                 F               0         Tower Z translation displacement, node 2, m
          7    1.899E+01                                 F               0         Tower X translation displacement, node 3, m
          8   -2.592E+00                                 F               0         Tower Y translation displacement, node 3, m
          9   -8.222E-01                                 F               0         Tower Z translation displacement, node 3, m
         10    2.096E+01                                 F               0         Tower X translation displacement, node 4, m
         11   -3.184E+00                                 F               0         Tower Y translation displacement, node 4, m
         12   -9.950E-01                                 F               0         Tower Z translation displacement, node 4, m
         13    2.295E+01                                 F               0         Tower X translation displacement, node 5, m
         14   -3.779E+00                                 F               0         Tower Y translation displacement, node 5, m
         15   -1.172E+00                                 F               0         Tower Z translation displacement, node 5, m
         16    2.497E+01                                 F               0         Tower X translation displacement, node 6, m
         17   -4.377E+00                                 F               0         Tower Y translation displacement, node 6, m
         18   -1.351E+00                                 F               0         Tower Z translation displacement, node 6, m
         19    2.699E+01                                 F               0         Tower X translation displacement, node 7, m
         20   -4.977E+00                                 F               0         Tower Y translation displacement, node 7, m
         21   -1.533E+00                                 F               0         Tower Z translation displacement, node 7, m
         22    2.903E+01                                 F               0         Tower X translation displacement, node 8, m
         23   -5.580E+00                                 F               0         Tower Y translation displacement, node 8, m
         24   -1.717E+00                                 F               0         Tower Z translation displacement, node 8, m
         25    3.108E+01                                 F               0         Tower X translation displacement, node 9, m
         26   -6.184E+00                                 F               0         Tower Y translation displacement, node 9, m
         27   -1.903E+00                                 F               0         Tower Z translation displacement, node 9, m
         28    3.313E+01                                 F               0         Tower X translation displacement, node 10, m
         29   -6.790E+00                                 F               0         Tower Y translation displacement, node 10, m
         30   -2.089E+00                                 F               0         Tower Z translation displacement, node 10, m
         31    3.518E+01                                 F               0         Tower X translation displacement, node 11, m
         32   -7.396E+00                                 F               0         Tower Y translation displacement, node 11, m
         33   -2.276E+00                                 F               0         Tower Z translation displacement, node 11, m
         34    9.881E-01, -3.533E-03, -1.540E-01         F               0         Tower X orientation angle, node 1, rad
         35    1.071E-02,  9.989E-01,  4.579E-02         F               0         Tower Y orientation angle, node 1, rad
         36    1.536E-01, -4.689E-02,  9.870E-01         F               0         Tower Z orientation angle, node 1, rad
         37    9.877E-01, -3.409E-03, -1.566E-01         F               0         Tower X orientation angle, node 2, rad
         38    1.077E-02,  9.989E-01,  4.619E-02         F               0         Tower Y orientation angle, node 2, rad
         39    1.562E-01, -4.731E-02,  9.866E-01         F               0         Tower Z orientation angle, node 2, rad
         40    9.873E-01, -3.298E-03, -1.589E-01         F               0         Tower X orientation angle, node 3, rad
         41    1.083E-02,  9.989E-01,  4.655E-02         F               0         Tower Y orientation angle, node 3, rad
         42    1.585E-01, -4.768E-02,  9.862E-01         F               0         Tower Z orientation angle, node 3, rad
         43    9.870E-01, -3.203E-03, -1.608E-01         F               0         Tower X orientation angle, node 4, rad
         44    1.088E-02,  9.988E-01,  4.687E-02         F               0         Tower Y orientation angle, node 4, rad
         45    1.605E-01, -4.800E-02,  9.859E-01         F               0         Tower Z orientation angle, node 4, rad
         46    9.867E-01, -3.123E-03, -1.625E-01         F               0         Tower X orientation angle, node 5, rad
         47    1.092E-02,  9.988E-01,  4.714E-02         F               0         Tower Y orientation angle, node 5, rad
         48    1.621E-01, -4.828E-02,  9.856E-01         F               0         Tower Z orientation angle, node 5, rad
         49    9.865E-01, -3.058E-03, -1.638E-01         F               0         Tower X orientation angle, node 6, rad
         50    1.096E-02,  9.988E-01,  4.736E-02         F               0         Tower Y orientation angle, node 6, rad
         51    1.635E-01, -4.852E-02,  9.854E-01         F               0         Tower Z orientation angle, node 6, rad
         52    9.863E-01, -3.007E-03, -1.648E-01         F               0         Tower X orientation angle, node 7, rad
         53    1.099E-02,  9.988E-01,  4.754E-02         F               0         Tower Y orientation angle, node 7, rad
         54    1.645E-01, -4.870E-02,  9.852E-01         F               0         Tower Z orientation angle, node 7, rad
         55    9.862E-01, -2.969E-03, -1.656E-01         F               0         Tower X orientation angle, node 8, rad
         56    1.101E-02,  9.988E-01,  4.768E-02         F               0         Tower Y orientation angle, node 8, rad
         57    1.652E-01, -4.885E-02,  9.850E-01         F               0         Tower Z orientation angle, node 8, rad
         58    9.861E-01, -2.942E-03, -1.661E-01         F               0         Tower X orientation angle, node 9, rad
         59    1.103E-02,  9.988E-01,  4.779E-02         F               0         Tower Y orientation angle, node 9, rad
         60    1.658E-01, -4.895E-02,  9.849E-01         F               0         Tower Z orientation angle, node 9, rad
         61    9.860E-01, -2.925E-03, -1.665E-01         F               0         Tower X orientation angle, node 10, rad
         62    1.104E-02,  9.988E-01,  4.785E-02         F               0         Tower Y orientation angle, node 10, rad
         63    1.661E-01, -4.902E-02,  9.849E-01         F               0         Tower Z orientation angle, node 10, rad
         64    9.860E-01, -2.916E-03, -1.666E-01         F               0         Tower X orientation angle, node 11, rad
         65    1.105E-02,  9.988E-01,  4.789E-02         F               0         Tower Y orientation angle, node 11, rad
         66    1.663E-01, -4.906E-02,  9.849E-01         F               0         Tower Z orientation angle, node 11, rad
         67    4.074E-04                                 F               0         Tower X translation velocity, node 1, m/s
         68    7.868E-04                                 F               0         Tower Y translation velocity, node 1, m/s
         69    3.779E-03                                 F               0         Tower Z translation velocity, node 1, m/s
         70    5.057E-04                                 F               0         Tower X translation velocity, node 2, m/s
         71    1.293E-03                                 F               0         Tower Y translation velocity, node 2, m/s
         72    3.788E-03                                 F               0         Tower Z translation velocity, node 2, m/s
         73    5.389E-04                                 F               0         Tower X translation velocity, node 3, m/s
         74    1.736E-03                                 F               0         Tower Y translation velocity, node 3, m/s
         75    3.804E-03                                 F               0         Tower Z translation velocity, node 3, m/s
         76    5.262E-04                                 F               0         Tower X translation velocity, node 4, m/s
         77    2.129E-03                                 F               0         Tower Y translation velocity, node 4, m/s
         78    3.825E-03                                 F               0         Tower Z translation velocity, node 4, m/s
         79    4.791E-04                                 F               0         Tower X translation velocity, node 5, m/s
         80    2.476E-03                                 F               0         Tower Y translation velocity, node 5, m/s
         81    3.849E-03                                 F               0         Tower Z translation velocity, node 5, m/s
         82    4.078E-04                                 F               0         Tower X translation velocity, node 6, m/s
         83    2.784E-03                                 F               0         Tower Y translation velocity, node 6, m/s
         84    3.876E-03                                 F               0         Tower Z translation velocity, node 6, m/s
         85    3.220E-04                                 F               0         Tower X translation velocity, node 7, m/s
         86    3.060E-03                                 F               0         Tower Y translation velocity, node 7, m/s
         87    3.904E-03                                 F               0         Tower Z translation velocity, node 7, m/s
         88    2.270E-04                                 F               0         Tower X translation velocity, node 8, m/s
         89    3.309E-03                                 F               0         Tower Y translation velocity, node 8, m/s
         90    3.932E-03                                 F               0         Tower Z translation velocity, node 8, m/s
         91    1.280E-04                                 F               0         Tower X translation velocity, node 9, m/s
         92    3.535E-03                                 F               0         Tower Y translation velocity, node 9, m/s
         93    3.960E-03                                 F               0         Tower Z translation velocity, node 9, m/s
         94    2.828E-05                                 F               0         Tower X translation velocity, node 10, m/s
         95    3.745E-03                                 F               0         Tower Y translation velocity, node 10, m/s
         96    3.988E-03                                 F               0         Tower Z translation velocity, node 10, m/s
         97   -7.021E-05                                 F               0         Tower X translation velocity, node 11, m/s
         98    3.945E-03                                 F               0         Tower Y translation velocity, node 11, m/s
         99    4.014E-03                                 F               0         Tower Z translation velocity, node 11, m/s
        100    3.664E+01                                 F               0         Hub X translation displacement, node 1, m
        101   -7.749E+00                                 F               0         Hub Y translation displacement, node 1, m
        102   -5.953E-01                                 F               0         Hub Z translation displacement, node 1, m
        103    9.632E-01,  2.228E-03, -2.687E-01         F               0         Hub X orientation angle, node 1, rad
        104    2.206E-01,  5.643E-01,  7.956E-01         F               0         Hub Y orientation angle, node 1, rad
        105    1.534E-01, -8.256E-01,  5.430E-01         F               0         Hub Z orientation angle, node 1, rad
        106    1.003E+00                                 F               0         Hub X rotation velocity, node 1, rad/s
        107    2.313E-03                                 F               0         Hub Y rotation velocity, node 1, rad/s
        108   -2.799E-01                                 F               0         Hub Z rotation velocity, node 1, rad/s
        109    9.563E-01, -1.451E-02, -2.922E-01         F               0         Blade root 1 X orientation angle, node 1, rad
        110    2.491E-01,  5.641E-01,  7.872E-01         F               0         Blade root 1 Y orientation angle, node 1, rad
        111    1.534E-01, -8.256E-01,  5.430E-01         F               0         Blade root 1 Z orientation angle, node 1, rad
        112    9.621E-01,  3.181E-02, -2.707E-01         F               0         Blade root 2 X orientation angle, node 1, rad
        113    5.110E-02, -9.966E-01,  6.451E-02         F               0         Blade root 2 Y orientation angle, node 1, rad
        114   -2.677E-01, -7.590E-02, -9.605E-01         F               0         Blade root 2 Z orientation angle, node 1, rad
        115    9.700E-01, -1.061E-02, -2.428E-01         F               0         Blade root 3 X orientation angle, node 1, rad
        116   -2.144E-01,  4.327E-01, -8.757E-01         F               0         Blade root 3 Y orientation angle, node 1, rad
        117    1.144E-01,  9.015E-01,  4.175E-01         F               0         Blade root 3 Z orientation angle, node 1, rad
        118    3.691E+01                                 F               0         Blade 1 X translation displacement, node 1, m
        119   -1.232E+01                                 F               0         Blade 1 Y translation displacement, node 1, m
        120   -3.096E+00                                 F               0         Blade 1 Z translation displacement, node 1, m
        121    3.697E+01                                 F               0         Blade 1 X translation displacement, node 2, m
        122   -1.343E+01                                 F               0         Blade 1 Y translation displacement, node 2, m
        123   -3.699E+00                                 F               0         Blade 1 Z translation displacement, node 2, m
        124    3.786E+01                                 F               0         Blade 1 X translation displacement, node 3, m
        125   -2.841E+01                                 F               0         Blade 1 Y translation displacement, node 3, m
        126   -1.189E+01                                 F               0         Blade 1 Z translation displacement, node 3, m
        127    3.805E+01                                 F               0         Blade 1 X translation displacement, node 4, m
        128   -3.160E+01                                 F               0         Blade 1 Y translation displacement, node 4, m
        129   -1.364E+01                                 F               0         Blade 1 Z translation displacement, node 4, m
        130    3.824E+01                                 F               0         Blade 1 X translation displacement, node 5, m
        131   -3.480E+01                                 F               0         Blade 1 Y translation displacement, node 5, m
        132   -1.539E+01                                 F               0         Blade 1 Z translation displacement, node 5, m
        133    3.843E+01                                 F               0         Blade 1 X translation displacement, node 6, m
        134   -3.799E+01                                 F               0         Blade 1 Y translation displacement, node 6, m
        135   -1.713E+01                                 F               0         Blade 1 Z translation displacement, node 6, m
        136    3.862E+01                                 F               0         Blade 1 X translation displacement, node 7, m
        137   -4.118E+01                                 F               0         Blade 1 Y translation displacement, node 7, m
        138   -1.888E+01                                 F               0         Blade 1 Z translation displacement, node 7, m
        139    3.880E+01                                 F               0         Blade 1 X translation displacement, node 8, m
        140   -4.438E+01                                 F               0         Blade 1 Y translation displacement, node 8, m
        141   -2.063E+01                                 F               0         Blade 1 Z translation displacement, node 8, m
        142    3.899E+01                                 F               0         Blade 1 X translation displacement, node 9, m
        143   -4.757E+01                                 F               0         Blade 1 Y translation displacement, node 9, m
        144   -2.237E+01                                 F               0         Blade 1 Z translation displacement, node 9, m
        145    3.918E+01                                 F               0         Blade 1 X translation displacement, node 10, m
        146   -5.076E+01                                 F               0         Blade 1 Y translation displacement, node 10, m
        147   -2.412E+01                                 F               0         Blade 1 Z translation displacement, node 10, m
        148    3.937E+01                                 F               0         Blade 1 X translation displacement, node 11, m
        149   -5.396E+01                                 F               0         Blade 1 Y translation displacement, node 11, m
        150   -2.586E+01                                 F               0         Blade 1 Z translation displacement, node 11, m
        151    3.956E+01                                 F               0         Blade 1 X translation displacement, node 12, m
        152   -5.715E+01                                 F               0         Blade 1 Y translation displacement, node 12, m
        153   -2.761E+01                                 F               0         Blade 1 Z translation displacement, node 12, m
        154    3.975E+01                                 F               0         Blade 1 X translation displacement, node 13, m
        155   -6.034E+01                                 F               0         Blade 1 Y translation displacement, node 13, m
        156   -2.936E+01                                 F               0         Blade 1 Z translation displacement, node 13, m
        157    3.994E+01                                 F               0         Blade 1 X translation displacement, node 14, m
        158   -6.354E+01                                 F               0         Blade 1 Y translation displacement, node 14, m
        159   -3.110E+01                                 F               0         Blade 1 Z translation displacement, node 14, m
        160    4.013E+01                                 F               0         Blade 1 X translation displacement, node 15, m
        161   -6.673E+01                                 F               0         Blade 1 Y translation displacement, node 15, m
        162   -3.285E+01                                 F               0         Blade 1 Z translation displacement, node 15, m
        163    4.032E+01                                 F               0         Blade 1 X translation displacement, node 16, m
        164   -6.992E+01                                 F               0         Blade 1 Y translation displacement, node 16, m
        165   -3.459E+01                                 F               0         Blade 1 Z translation displacement, node 16, m
        166    4.051E+01                                 F               0         Blade 1 X translation displacement, node 17, m
        167   -7.311E+01                                 F               0         Blade 1 Y translation displacement, node 17, m
        168   -3.634E+01                                 F               0         Blade 1 Z translation displacement, node 17, m
        169    4.069E+01                                 F               0         Blade 1 X translation displacement, node 18, m
        170   -7.631E+01                                 F               0         Blade 1 Y translation displacement, node 18, m
        171   -3.809E+01                                 F               0         Blade 1 Z translation displacement, node 18, m
        172    4.088E+01                                 F               0         Blade 1 X translation displacement, node 19, m
        173   -7.950E+01                                 F               0         Blade 1 Y translation displacement, node 19, m
        174   -3.983E+01                                 F               0         Blade 1 Z translation displacement, node 19, m
        175    4.107E+01                                 F               0         Blade 1 X translation displacement, node 20, m
        176   -8.269E+01                                 F               0         Blade 1 Y translation displacement, node 20, m
        177   -4.158E+01                                 F               0         Blade 1 Z translation displacement, node 20, m
        178    4.126E+01                                 F               0         Blade 1 X translation displacement, node 21, m
        179   -8.589E+01                                 F               0         Blade 1 Y translation displacement, node 21, m
        180   -4.333E+01                                 F               0         Blade 1 Z translation displacement, node 21, m
        181    4.145E+01                                 F               0         Blade 1 X translation displacement, node 22, m
        182   -8.908E+01                                 F               0         Blade 1 Y translation displacement, node 22, m
        183   -4.507E+01                                 F               0         Blade 1 Z translation displacement, node 22, m
        184    4.164E+01                                 F               0         Blade 1 X translation displacement, node 23, m
        185   -9.227E+01                                 F               0         Blade 1 Y translation displacement, node 23, m
        186   -4.682E+01                                 F               0         Blade 1 Z translation displacement, node 23, m
        187    4.183E+01                                 F               0         Blade 1 X translation displacement, node 24, m
        188   -9.547E+01                                 F               0         Blade 1 Y translation displacement, node 24, m
        189   -4.856E+01                                 F               0         Blade 1 Z translation displacement, node 24, m
        190    4.202E+01                                 F               0         Blade 1 X translation displacement, node 25, m
        191   -9.866E+01                                 F               0         Blade 1 Y translation displacement, node 25, m
        192   -5.031E+01                                 F               0         Blade 1 Z translation displacement, node 25, m
        193    4.221E+01                                 F               0         Blade 1 X translation displacement, node 26, m
        194   -1.019E+02                                 F               0         Blade 1 Y translation displacement, node 26, m
        195   -5.206E+01                                 F               0         Blade 1 Z translation displacement, node 26, m
        196    4.239E+01                                 F               0         Blade 1 X translation displacement, node 27, m
        197   -1.050E+02                                 F               0         Blade 1 Y translation displacement, node 27, m
        198   -5.380E+01                                 F               0         Blade 1 Z translation displacement, node 27, m
        199    4.255E+01                                 F               0         Blade 1 X translation displacement, node 28, m
        200   -1.078E+02                                 F               0         Blade 1 Y translation displacement, node 28, m
        201   -5.528E+01                                 F               0         Blade 1 Z translation displacement, node 28, m
        202    7.375E-01, -2.702E-01, -6.190E-01         F               0         Blade 1 X orientation angle, node 1, rad
        203    6.577E-01,  4.954E-01,  5.674E-01         F               0         Blade 1 Y orientation angle, node 1, rad
        204    1.534E-01, -8.256E-01,  5.430E-01         F               0         Blade 1 Z orientation angle, node 1, rad
        205    7.375E-01, -2.702E-01, -6.190E-01         F               0         Blade 1 X orientation angle, node 2, rad
        206    6.577E-01,  4.954E-01,  5.674E-01         F               0         Blade 1 Y orientation angle, node 2, rad
        207    1.534E-01, -8.256E-01,  5.430E-01         F               0         Blade 1 Z orientation angle, node 2, rad
        208    8.723E-01, -1.450E-01, -4.669E-01         F               0         Blade 1 X orientation angle, node 3, rad
        209    4.642E-01,  5.453E-01,  6.979E-01         F               0         Blade 1 Y orientation angle, node 3, rad
        210    1.534E-01, -8.256E-01,  5.430E-01         F               0         Blade 1 Z orientation angle, node 3, rad
        211    8.912E-01, -1.219E-01, -4.370E-01         F               0         Blade 1 X orientation angle, node 4, rad
        212    4.270E-01,  5.510E-01,  7.170E-01         F               0         Blade 1 Y orientation angle, node 4, rad
        213    1.534E-01, -8.256E-01,  5.430E-01         F               0         Blade 1 Z orientation angle, node 4, rad
        214    9.048E-01, -1.035E-01, -4.130E-01         F               0         Blade 1 X orientation angle, node 5, rad
        215    3.972E-01,  5.547E-01,  7.311E-01         F               0         Blade 1 Y orientation angle, node 5, rad
        216    1.534E-01, -8.256E-01,  5.430E-01         F               0         Blade 1 Z orientation angle, node 5, rad
        217    9.150E-01, -8.880E-02, -3.934E-01         F               0         Blade 1 X orientation angle, node 6, rad
        218    3.730E-01,  5.573E-01,  7.418E-01         F               0         Blade 1 Y orientation angle, node 6, rad
        219    1.534E-01, -8.256E-01,  5.430E-01         F               0         Blade 1 Z orientation angle, node 6, rad
        220    9.230E-01, -7.662E-02, -3.772E-01         F               0         Blade 1 X orientation angle, node 7, rad
        221    3.530E-01,  5.591E-01,  7.502E-01         F               0         Blade 1 Y orientation angle, node 7, rad
        222    1.534E-01, -8.256E-01,  5.430E-01         F               0         Blade 1 Z orientation angle, node 7, rad
        223    9.292E-01, -6.646E-02, -3.635E-01         F               0         Blade 1 X orientation angle, node 8, rad
        224    3.362E-01,  5.604E-01,  7.569E-01         F               0         Blade 1 Y orientation angle, node 8, rad
        225    1.534E-01, -8.256E-01,  5.430E-01         F               0         Blade 1 Z orientation angle, node 8, rad
        226    9.343E-01, -5.785E-02, -3.518E-01         F               0         Blade 1 X orientation angle, node 9, rad
        227    3.219E-01,  5.613E-01,  7.624E-01         F               0         Blade 1 Y orientation angle, node 9, rad