
Linearized model: Predictions were generated on 31-Jan-2024 at 12:35:17 using OpenFAST, compiled as a 64-bit application using single precision at commit v3.5.1
 linked with  NWTC Subroutine Library; ElastoDyn; InflowWind; AeroDyn; ServoDyn; HydroDyn; MAP++ (<1.20.10>, <Oct-20-2023>)

Description from the FAST input file: CCT-9 Campign 4 model. Input files to be run with OpenFAST 3.5.0. GitHub branch from Lu Wang (https://github.com/luwang00/openfast/tree/dev) compiled on March 7, 2023.

Simulation information:
   Simulation time:                   501.9750 s
   Rotor Speed:                         0.8937 rad/s
   Azimuth:                             2.5111 rad
   Wind Speed:                         10.0000 m/s
   Number of continuous states:         0
   Number of discrete states:           0
   Number of constraint states:         0
   Number of inputs:                  303
   Number of outputs:                   1
   Jacobians included in this file?    No

Order of inputs:
     Column   Operating Point                     Rotating Frame? Derivative Order Description
   ---------- ---------------                     --------------- ---------------- -----------
          1   -1.080E+01                                 F               0         X-component position of node 1 (hub), m
          2    0.000E+00                                 F               0         Y-component position of node 1 (hub), m
          3    1.497E+02                                 F               0         Z-component position of node 1 (hub), m
          4    4.981E-02                                 F               0         X-component position of node 2 (blade 1, node 1), m
          5   -1.017E+01                                 F               0         Y-component position of node 2 (blade 1, node 1), m
          6    1.452E+02                                 F               0         Z-component position of node 2 (blade 1, node 1), m
          7   -8.234E-02                                 F               0         X-component position of node 3 (blade 1, node 2), m
          8   -1.092E+01                                 F               0         Y-component position of node 3 (blade 1, node 2), m
          9    1.441E+02                                 F               0         Z-component position of node 3 (blade 1, node 2), m
         10   -1.879E+00                                 F               0         X-component position of node 4 (blade 1, node 3), m
         11   -2.099E+01                                 F               0         Y-component position of node 4 (blade 1, node 3), m
         12    1.291E+02                                 F               0         Z-component position of node 4 (blade 1, node 3), m
         13   -2.262E+00                                 F               0         X-component position of node 5 (blade 1, node 4), m
         14   -2.314E+01                                 F               0         Y-component position of node 5 (blade 1, node 4), m
         15    1.259E+02                                 F               0         Z-component position of node 5 (blade 1, node 4), m
         16   -2.645E+00                                 F               0         X-component position of node 6 (blade 1, node 5), m
         17   -2.528E+01                                 F               0         Y-component position of node 6 (blade 1, node 5), m
         18    1.227E+02                                 F               0         Z-component position of node 6 (blade 1, node 5), m
         19   -3.028E+00                                 F               0         X-component position of node 7 (blade 1, node 6), m
         20   -2.743E+01                                 F               0         Y-component position of node 7 (blade 1, node 6), m
         21    1.195E+02                                 F               0         Z-component position of node 7 (blade 1, node 6), m
         22   -3.411E+00                                 F               0         X-component position of node 8 (blade 1, node 7), m
         23   -2.958E+01                                 F               0         Y-component position of node 8 (blade 1, node 7), m
         24    1.163E+02                                 F               0         Z-component position of node 8 (blade 1, node 7), m
         25   -3.794E+00                                 F               0         X-component position of node 9 (blade 1, node 8), m
         26   -3.172E+01                                 F               0         Y-component position of node 9 (blade 1, node 8), m
         27    1.131E+02                                 F               0         Z-component position of node 9 (blade 1, node 8), m
         28   -4.177E+00                                 F               0         X-component position of node 10 (blade 1, node 9), m
         29   -3.387E+01                                 F               0         Y-component position of node 10 (blade 1, node 9), m
         30    1.099E+02                                 F               0         Z-component position of node 10 (blade 1, node 9), m
         31   -4.560E+00                                 F               0         X-component position of node 11 (blade 1, node 10), m
         32   -3.602E+01                                 F               0         Y-component position of node 11 (blade 1, node 10), m
         33    1.067E+02                                 F               0         Z-component position of node 11 (blade 1, node 10), m
         34   -4.943E+00                                 F               0         X-component position of node 12 (blade 1, node 11), m
         35   -3.816E+01                                 F               0         Y-component position of node 12 (blade 1, node 11), m
         36    1.035E+02                                 F               0         Z-component position of node 12 (blade 1, node 11), m
         37   -5.326E+00                                 F               0         X-component position of node 13 (blade 1, node 12), m
         38   -4.031E+01                                 F               0         Y-component position of node 13 (blade 1, node 12), m
         39    1.003E+02                                 F               0         Z-component position of node 13 (blade 1, node 12), m
         40   -5.708E+00                                 F               0         X-component position of node 14 (blade 1, node 13), m
         41   -4.246E+01                                 F               0         Y-component position of node 14 (blade 1, node 13), m
         42    9.714E+01                                 F               0         Z-component position of node 14 (blade 1, node 13), m
         43   -6.091E+00                                 F               0         X-component position of node 15 (blade 1, node 14), m
         44   -4.460E+01                                 F               0         Y-component position of node 15 (blade 1, node 14), m
         45    9.395E+01                                 F               0         Z-component position of node 15 (blade 1, node 14), m
         46   -6.474E+00                                 F               0         X-component position of node 16 (blade 1, node 15), m
         47   -4.675E+01                                 F               0         Y-component position of node 16 (blade 1, node 15), m
         48    9.076E+01                                 F               0         Z-component position of node 16 (blade 1, node 15), m
         49   -6.857E+00                                 F               0         X-component position of node 17 (blade 1, node 16), m
         50   -4.890E+01                                 F               0         Y-component position of node 17 (blade 1, node 16), m
         51    8.756E+01                                 F               0         Z-component position of node 17 (blade 1, node 16), m
         52   -7.240E+00                                 F               0         X-component position of node 18 (blade 1, node 17), m
         53   -5.104E+01                                 F               0         Y-component position of node 18 (blade 1, node 17), m
         54    8.437E+01                                 F               0         Z-component position of node 18 (blade 1, node 17), m
         55   -7.623E+00                                 F               0         X-component position of node 19 (blade 1, node 18), m
         56   -5.319E+01                                 F               0         Y-component position of node 19 (blade 1, node 18), m
         57    8.117E+01                                 F               0         Z-component position of node 19 (blade 1, node 18), m
         58   -8.006E+00                                 F               0         X-component position of node 20 (blade 1, node 19), m
         59   -5.534E+01                                 F               0         Y-component position of node 20 (blade 1, node 19), m
         60    7.798E+01                                 F               0         Z-component position of node 20 (blade 1, node 19), m
         61   -8.389E+00                                 F               0         X-component position of node 21 (blade 1, node 20), m
         62   -5.748E+01                                 F               0         Y-component position of node 21 (blade 1, node 20), m
         63    7.478E+01                                 F               0         Z-component position of node 21 (blade 1, node 20), m
         64   -8.772E+00                                 F               0         X-component position of node 22 (blade 1, node 21), m
         65   -5.963E+01                                 F               0         Y-component position of node 22 (blade 1, node 21), m
         66    7.159E+01                                 F               0         Z-component position of node 22 (blade 1, node 21), m
         67   -9.155E+00                                 F               0         X-component position of node 23 (blade 1, node 22), m
         68   -6.178E+01                                 F               0         Y-component position of node 23 (blade 1, node 22), m
         69    6.839E+01                                 F               0         Z-component position of node 23 (blade 1, node 22), m
         70   -9.538E+00                                 F               0         X-component position of node 24 (blade 1, node 23), m
         71   -6.393E+01                                 F               0         Y-component position of node 24 (blade 1, node 23), m
         72    6.520E+01                                 F               0         Z-component position of node 24 (blade 1, node 23), m
         73   -9.920E+00                                 F               0         X-component position of node 25 (blade 1, node 24), m
         74   -6.607E+01                                 F               0         Y-component position of node 25 (blade 1, node 24), m
         75    6.201E+01                                 F               0         Z-component position of node 25 (blade 1, node 24), m
         76   -1.030E+01                                 F               0         X-component position of node 26 (blade 1, node 25), m
         77   -6.822E+01                                 F               0         Y-component position of node 26 (blade 1, node 25), m
         78    5.881E+01                                 F               0         Z-component position of node 26 (blade 1, node 25), m
         79   -1.069E+01                                 F               0         X-component position of node 27 (blade 1, node 26), m
         80   -7.037E+01                                 F               0         Y-component position of node 27 (blade 1, node 26), m
         81    5.562E+01                                 F               0         Z-component position of node 27 (blade 1, node 26), m
         82   -1.107E+01                                 F               0         X-component position of node 28 (blade 1, node 27), m
         83   -7.251E+01                                 F               0         Y-component position of node 28 (blade 1, node 27), m
         84    5.242E+01                                 F               0         Z-component position of node 28 (blade 1, node 27), m
         85   -1.139E+01                                 F               0         X-component position of node 29 (blade 1, node 28), m
         86   -7.433E+01                                 F               0         Y-component position of node 29 (blade 1, node 28), m
         87    4.972E+01                                 F               0         Z-component position of node 29 (blade 1, node 28), m
         88    4.861E-01                                 F               0         X-component position of node 30 (blade 2, node 1), m
         89   -1.572E+00                                 F               0         Y-component position of node 30 (blade 2, node 1), m
         90    1.494E+02                                 F               0         Z-component position of node 30 (blade 2, node 1), m
         91    4.591E-01                                 F               0         X-component position of node 31 (blade 2, node 2), m
         92   -2.397E-01                                 F               0         Y-component position of node 31 (blade 2, node 2), m
         93    1.493E+02                                 F               0         Z-component position of node 31 (blade 2, node 2), m
         94    9.163E-02                                 F               0         X-component position of node 32 (blade 2, node 3), m
         95    1.787E+01                                 F               0         Y-component position of node 32 (blade 2, node 3), m
         96    1.482E+02                                 F               0         Z-component position of node 32 (blade 2, node 3), m
         97    1.334E-02                                 F               0         X-component position of node 33 (blade 2, node 4), m
         98    2.173E+01                                 F               0         Y-component position of node 33 (blade 2, node 4), m
         99    1.479E+02                                 F               0         Z-component position of node 33 (blade 2, node 4), m
        100   -6.497E-02                                 F               0         X-component position of node 34 (blade 2, node 5), m
        101    2.559E+01                                 F               0         Y-component position of node 34 (blade 2, node 5), m
        102    1.477E+02                                 F               0         Z-component position of node 34 (blade 2, node 5), m
        103   -1.433E-01                                 F               0         X-component position of node 35 (blade 2, node 6), m
        104    2.945E+01                                 F               0         Y-component position of node 35 (blade 2, node 6), m
        105    1.475E+02                                 F               0         Z-component position of node 35 (blade 2, node 6), m
        106   -2.216E-01                                 F               0         X-component position of node 36 (blade 2, node 7), m
        107    3.331E+01                                 F               0         Y-component position of node 36 (blade 2, node 7), m
        108    1.472E+02                                 F               0         Z-component position of node 36 (blade 2, node 7), m
        109   -2.999E-01                                 F               0         X-component position of node 37 (blade 2, node 8), m
        110    3.717E+01                                 F               0         Y-component position of node 37 (blade 2, node 8), m
        111    1.470E+02                                 F               0         Z-component position of node 37 (blade 2, node 8), m
        112   -3.782E-01                                 F               0         X-component position of node 38 (blade 2, node 9), m
        113    4.103E+01                                 F               0         Y-component position of node 38 (blade 2, node 9), m
        114    1.467E+02                                 F               0         Z-component position of node 38 (blade 2, node 9), m
        115   -4.565E-01                                 F               0         X-component position of node 39 (blade 2, node 10), m
        116    4.489E+01                                 F               0         Y-component position of node 39 (blade 2, node 10), m
        117    1.465E+02                                 F               0         Z-component position of node 39 (blade 2, node 10), m
        118   -5.347E-01                                 F               0         X-component position of node 40 (blade 2, node 11), m
        119    4.875E+01                                 F               0         Y-component position of node 40 (blade 2, node 11), m
        120    1.462E+02                                 F               0         Z-component position of node 40 (blade 2, node 11), m
        121   -6.131E-01                                 F               0         X-component position of node 41 (blade 2, node 12), m
        122    5.261E+01                                 F               0         Y-component position of node 41 (blade 2, node 12), m
        123    1.460E+02                                 F               0         Z-component position of node 41 (blade 2, node 12), m
        124   -6.913E-01                                 F               0         X-component position of node 42 (blade 2, node 13), m
        125    5.647E+01                                 F               0         Y-component position of node 42 (blade 2, node 13), m
        126    1.458E+02                                 F               0         Z-component position of node 42 (blade 2, node 13), m
        127   -7.696E-01                                 F               0         X-component position of node 43 (blade 2, node 14), m
        128    6.033E+01                                 F               0         Y-component position of node 43 (blade 2, node 14), m
        129    1.455E+02                                 F               0         Z-component position of node 43 (blade 2, node 14), m
        130   -8.479E-01                                 F               0         X-component position of node 44 (blade 2, node 15), m
        131    6.418E+01                                 F               0         Y-component position of node 44 (blade 2, node 15), m
        132    1.453E+02                                 F               0         Z-component position of node 44 (blade 2, node 15), m
        133   -9.262E-01                                 F               0         X-component position of node 45 (blade 2, node 16), m
        134    6.804E+01                                 F               0         Y-component position of node 45 (blade 2, node 16), m
        135    1.450E+02                                 F               0         Z-component position of node 45 (blade 2, node 16), m
        136   -1.005E+00                                 F               0         X-component position of node 46 (blade 2, node 17), m
        137    7.190E+01                                 F               0         Y-component position of node 46 (blade 2, node 17), m
        138    1.448E+02                                 F               0         Z-component position of node 46 (blade 2, node 17), m
        139   -1.083E+00                                 F               0         X-component position of node 47 (blade 2, node 18), m
        140    7.576E+01                                 F               0         Y-component position of node 47 (blade 2, node 18), m
        141    1.445E+02                                 F               0         Z-component position of node 47 (blade 2, node 18), m
        142   -1.161E+00                                 F               0         X-component position of node 48 (blade 2, node 19), m
        143    7.962E+01                                 F               0         Y-component position of node 48 (blade 2, node 19), m
        144    1.443E+02                                 F               0         Z-component position of node 48 (blade 2, node 19), m
        145   -1.239E+00                                 F               0         X-component position of node 49 (blade 2, node 20), m
        146    8.348E+01                                 F               0         Y-component position of node 49 (blade 2, node 20), m
        147    1.441E+02                                 F               0         Z-component position of node 49 (blade 2, node 20), m
        148   -1.318E+00                                 F               0         X-component position of node 50 (blade 2, node 21), m
        149    8.734E+01                                 F               0         Y-component position of node 50 (blade 2, node 21), m
        150    1.438E+02                                 F               0         Z-component position of node 50 (blade 2, node 21), m
        151   -1.396E+00                                 F               0         X-component position of node 51 (blade 2, node 22), m
        152    9.120E+01                                 F               0         Y-component position of node 51 (blade 2, node 22), m
        153    1.436E+02                                 F               0         Z-component position of node 51 (blade 2, node 22), m
        154   -1.474E+00                                 F               0         X-component position of node 52 (blade 2, node 23), m
        155    9.506E+01                                 F               0         Y-component position of node 52 (blade 2, node 23), m
        156    1.433E+02                                 F               0         Z-component position of node 52 (blade 2, node 23), m
        157   -1.553E+00                                 F               0         X-component position of node 53 (blade 2, node 24), m
        158    9.892E+01                                 F               0         Y-component position of node 53 (blade 2, node 24), m
        159    1.431E+02                                 F               0         Z-component position of node 53 (blade 2, node 24), m
        160   -1.631E+00                                 F               0         X-component position of node 54 (blade 2, node 25), m
        161    1.028E+02                                 F               0         Y-component position of node 54 (blade 2, node 25), m
        162    1.428E+02                                 F               0         Z-component position of node 54 (blade 2, node 25), m
        163   -1.709E+00                                 F               0         X-component position of node 55 (blade 2, node 26), m
        164    1.066E+02                                 F               0         Y-component position of node 55 (blade 2, node 26), m
        165    1.426E+02                                 F               0         Z-component position of node 55 (blade 2, node 26), m
        166   -1.788E+00                                 F               0         X-component position of node 56 (blade 2, node 27), m
        167    1.105E+02                                 F               0         Y-component position of node 56 (blade 2, node 27), m
        168    1.424E+02                                 F               0         Z-component position of node 56 (blade 2, node 27), m
        169   -1.854E+00                                 F               0         X-component position of node 57 (blade 2, node 28), m
        170    1.138E+02                                 F               0         Y-component position of node 57 (blade 2, node 28), m
        171    1.422E+02                                 F               0         Z-component position of node 57 (blade 2, node 28), m
        172    1.259E+00                                 F               0         X-component position of node 58 (blade 3, node 1), m
        173   -9.553E+00                                 F               0         Y-component position of node 58 (blade 3, node 1), m
        174    1.547E+02                                 F               0         Z-component position of node 58 (blade 3, node 1), m
        175    1.418E+00                                 F               0         X-component position of node 59 (blade 3, node 2), m
        176   -1.014E+01                                 F               0         Y-component position of node 59 (blade 3, node 2), m
        177    1.559E+02                                 F               0         Z-component position of node 59 (blade 3, node 2), m
        178    3.583E+00                                 F               0         X-component position of node 60 (blade 3, node 3), m
        179   -1.818E+01                                 F               0         Y-component position of node 60 (blade 3, node 3), m
        180    1.720E+02                                 F               0         Z-component position of node 60 (blade 3, node 3), m
        181    4.044E+00                                 F               0         X-component position of node 61 (blade 3, node 4), m
        182   -1.989E+01                                 F               0         Y-component position of node 61 (blade 3, node 4), m
        183    1.754E+02                                 F               0         Z-component position of node 61 (blade 3, node 4), m
        184    4.505E+00                                 F               0         X-component position of node 62 (blade 3, node 5), m
        185   -2.161E+01                                 F               0         Y-component position of node 62 (blade 3, node 5), m
        186    1.789E+02                                 F               0         Z-component position of node 62 (blade 3, node 5), m
        187    4.966E+00                                 F               0         X-component position of node 63 (blade 3, node 6), m
        188   -2.332E+01                                 F               0         Y-component position of node 63 (blade 3, node 6), m
        189    1.823E+02                                 F               0         Z-component position of node 63 (blade 3, node 6), m
        190    5.427E+00                                 F               0         X-component position of node 64 (blade 3, node 7), m
        191   -2.503E+01                                 F               0         Y-component position of node 64 (blade 3, node 7), m
        192    1.857E+02                                 F               0         Z-component position of node 64 (blade 3, node 7), m
        193    5.889E+00                                 F               0         X-component position of node 65 (blade 3, node 8), m
        194   -2.674E+01                                 F               0         Y-component position of node 65 (blade 3, node 8), m
        195    1.892E+02                                 F               0         Z-component position of node 65 (blade 3, node 8), m
        196    6.350E+00                                 F               0         X-component position of node 66 (blade 3, node 9), m
        197   -2.846E+01                                 F               0         Y-component position of node 66 (blade 3, node 9), m
        198    1.926E+02                                 F               0         Z-component position of node 66 (blade 3, node 9), m
        199    6.811E+00                                 F               0         X-component position of node 67 (blade 3, node 10), m
        200   -3.017E+01                                 F               0         Y-component position of node 67 (blade 3, node 10), m
        201    1.961E+02                                 F               0         Z-component position of node 67 (blade 3, node 10), m
        202    7.272E+00                                 F               0         X-component position of node 68 (blade 3, node 11), m
        203   -3.188E+01                                 F               0         Y-component position of node 68 (blade 3, node 11), m
        204    1.995E+02                                 F               0         Z-component position of node 68 (blade 3, node 11), m
        205    7.733E+00                                 F               0         X-component position of node 69 (blade 3, node 12), m
        206   -3.359E+01                                 F               0         Y-component position of node 69 (blade 3, node 12), m
        207    2.029E+02                                 F               0         Z-component position of node 69 (blade 3, node 12), m
        208    8.195E+00                                 F               0         X-component position of node 70 (blade 3, node 13), m
        209   -3.531E+01                                 F               0         Y-component position of node 70 (blade 3, node 13), m
        210    2.064E+02                                 F               0         Z-component position of node 70 (blade 3, node 13), m
        211    8.656E+00                                 F               0         X-component position of node 71 (blade 3, node 14), m