
Linearized model: Predictions were generated on 31-Jan-2024 at 12:35:17 using OpenFAST, compiled as a 64-bit application using single precision at commit v3.5.1
 linked with  NWTC Subroutine Library; ElastoDyn; InflowWind; AeroDyn; ServoDyn; HydroDyn; MAP++ (<1.20.10>, <Oct-20-2023>)

Description from the FAST input file: CCT-9 Campign 4 model. Input files to be run with OpenFAST 3.5.0. GitHub branch from Lu Wang (https://github.com/luwang00/openfast/tree/dev) compiled on March 7, 2023.

Simulation information:
   Simulation time:                   503.9500 s
   Rotor Speed:                         0.8939 rad/s
   Azimuth:                             4.2764 rad
   Wind Speed:                         10.0000 m/s
   Number of continuous states:         0
   Number of discrete states:           0
   Number of constraint states:         0
   Number of inputs:                 1746
   Number of outputs:                   4
   Jacobians included in this file?    No

Order of inputs:
     Column   Operating Point                     Rotating Frame? Derivative Order Description
   ---------- ---------------                     --------------- ---------------- -----------
          1    8.514E+00                                 F               0         Tower X translation displacement, node 1, m
          2   -1.355E+00                                 F               0         Tower Y translation displacement, node 1, m
          3   -8.401E-02                                 F               0         Tower Z translation displacement, node 1, m
          4    8.750E+00                                 F               0         Tower X translation displacement, node 2, m
          5   -1.887E+00                                 F               0         Tower Y translation displacement, node 2, m
          6   -9.776E-02                                 F               0         Tower Z translation displacement, node 2, m
          7    9.000E+00                                 F               0         Tower X translation displacement, node 3, m
          8   -2.420E+00                                 F               0         Tower Y translation displacement, node 3, m
          9   -1.118E-01                                 F               0         Tower Z translation displacement, node 3, m
         10    9.260E+00                                 F               0         Tower X translation displacement, node 4, m
         11   -2.952E+00                                 F               0         Tower Y translation displacement, node 4, m
         12   -1.260E-01                                 F               0         Tower Z translation displacement, node 4, m
         13    9.527E+00                                 F               0         Tower X translation displacement, node 5, m
         14   -3.485E+00                                 F               0         Tower Y translation displacement, node 5, m
         15   -1.404E-01                                 F               0         Tower Z translation displacement, node 5, m
         16    9.801E+00                                 F               0         Tower X translation displacement, node 6, m
         17   -4.017E+00                                 F               0         Tower Y translation displacement, node 6, m
         18   -1.549E-01                                 F               0         Tower Z translation displacement, node 6, m
         19    1.008E+01                                 F               0         Tower X translation displacement, node 7, m
         20   -4.549E+00                                 F               0         Tower Y translation displacement, node 7, m
         21   -1.695E-01                                 F               0         Tower Z translation displacement, node 7, m
         22    1.036E+01                                 F               0         Tower X translation displacement, node 8, m
         23   -5.082E+00                                 F               0         Tower Y translation displacement, node 8, m
         24   -1.841E-01                                 F               0         Tower Z translation displacement, node 8, m
         25    1.064E+01                                 F               0         Tower X translation displacement, node 9, m
         26   -5.614E+00                                 F               0         Tower Y translation displacement, node 9, m
         27   -1.988E-01                                 F               0         Tower Z translation displacement, node 9, m
         28    1.093E+01                                 F               0         Tower X translation displacement, node 10, m
         29   -6.146E+00                                 F               0         Tower Y translation displacement, node 10, m
         30   -2.136E-01                                 F               0         Tower Z translation displacement, node 10, m
         31    1.121E+01                                 F               0         Tower X translation displacement, node 11, m
         32   -6.679E+00                                 F               0         Tower Y translation displacement, node 11, m
         33   -2.284E-01                                 F               0         Tower Z translation displacement, node 11, m
         34    9.998E-01,  7.492E-03, -1.841E-02         F               0         Tower X orientation angle, node 1, rad
         35   -6.689E-03,  9.990E-01,  4.325E-02         F               0         Tower Y orientation angle, node 1, rad
         36    1.872E-02, -4.312E-02,  9.989E-01         F               0         Tower Z orientation angle, node 1, rad
         37    9.998E-01,  7.535E-03, -1.943E-02         F               0         Tower X orientation angle, node 2, rad
         38   -6.689E-03,  9.990E-01,  4.325E-02         F               0         Tower Y orientation angle, node 2, rad
         39    1.974E-02, -4.311E-02,  9.989E-01         F               0         Tower Z orientation angle, node 2, rad
         40    9.998E-01,  7.573E-03, -2.030E-02         F               0         Tower X orientation angle, node 3, rad
         41   -6.689E-03,  9.990E-01,  4.325E-02         F               0         Tower Y orientation angle, node 3, rad
         42    2.061E-02, -4.310E-02,  9.989E-01         F               0         Tower Z orientation angle, node 3, rad
         43    9.998E-01,  7.604E-03, -2.101E-02         F               0         Tower X orientation angle, node 4, rad
         44   -6.689E-03,  9.990E-01,  4.325E-02         F               0         Tower Y orientation angle, node 4, rad
         45    2.132E-02, -4.310E-02,  9.988E-01         F               0         Tower Z orientation angle, node 4, rad
         46    9.997E-01,  7.628E-03, -2.158E-02         F               0         Tower X orientation angle, node 5, rad
         47   -6.689E-03,  9.990E-01,  4.325E-02         F               0         Tower Y orientation angle, node 5, rad
         48    2.189E-02, -4.309E-02,  9.988E-01         F               0         Tower Z orientation angle, node 5, rad
         49    9.997E-01,  7.647E-03, -2.201E-02         F               0         Tower X orientation angle, node 6, rad
         50   -6.689E-03,  9.990E-01,  4.325E-02         F               0         Tower Y orientation angle, node 6, rad
         51    2.232E-02, -4.309E-02,  9.988E-01         F               0         Tower Z orientation angle, node 6, rad
         52    9.997E-01,  7.660E-03, -2.231E-02         F               0         Tower X orientation angle, node 7, rad
         53   -6.689E-03,  9.990E-01,  4.325E-02         F               0         Tower Y orientation angle, node 7, rad
         54    2.262E-02, -4.309E-02,  9.988E-01         F               0         Tower Z orientation angle, node 7, rad
         55    9.997E-01,  7.669E-03, -2.252E-02         F               0         Tower X orientation angle, node 8, rad
         56   -6.689E-03,  9.990E-01,  4.325E-02         F               0         Tower Y orientation angle, node 8, rad
         57    2.283E-02, -4.308E-02,  9.988E-01         F               0         Tower Z orientation angle, node 8, rad
         58    9.997E-01,  7.674E-03, -2.265E-02         F               0         Tower X orientation angle, node 9, rad
         59   -6.689E-03,  9.990E-01,  4.325E-02         F               0         Tower Y orientation angle, node 9, rad
         60    2.296E-02, -4.308E-02,  9.988E-01         F               0         Tower Z orientation angle, node 9, rad
         61    9.997E-01,  7.677E-03, -2.272E-02         F               0         Tower X orientation angle, node 10, rad
         62   -6.689E-03,  9.990E-01,  4.325E-02         F               0         Tower Y orientation angle, node 10, rad
         63    2.303E-02, -4.308E-02,  9.988E-01         F               0         Tower Z orientation angle, node 10, rad
         64    9.997E-01,  7.679E-03, -2.274E-02         F               0         Tower X orientation angle, node 11, rad
         65   -6.689E-03,  9.990E-01,  4.325E-02         F               0         Tower Y orientation angle, node 11, rad
         66    2.306E-02, -4.308E-02,  9.988E-01         F               0         Tower Z orientation angle, node 11, rad
         67   -1.384E-03                                 F               0         Tower X translation velocity, node 1, m/s
         68    1.531E-06                                 F               0         Tower Y translation velocity, node 1, m/s
         69   -7.206E-03                                 F               0         Tower Z translation velocity, node 1, m/s
         70   -1.380E-03                                 F               0         Tower X translation velocity, node 2, m/s
         71    2.596E-06                                 F               0         Tower Y translation velocity, node 2, m/s
         72   -7.206E-03                                 F               0         Tower Z translation velocity, node 2, m/s
         73   -1.374E-03                                 F               0         Tower X translation velocity, node 3, m/s
         74    3.739E-06                                 F               0         Tower Y translation velocity, node 3, m/s
         75   -7.206E-03                                 F               0         Tower Z translation velocity, node 3, m/s
         76   -1.367E-03                                 F               0         Tower X translation velocity, node 4, m/s
         77    4.931E-06                                 F               0         Tower Y translation velocity, node 4, m/s
         78   -7.206E-03                                 F               0         Tower Z translation velocity, node 4, m/s
         79   -1.361E-03                                 F               0         Tower X translation velocity, node 5, m/s
         80    6.155E-06                                 F               0         Tower Y translation velocity, node 5, m/s
         81   -7.206E-03                                 F               0         Tower Z translation velocity, node 5, m/s
         82   -1.356E-03                                 F               0         Tower X translation velocity, node 6, m/s
         83    7.392E-06                                 F               0         Tower Y translation velocity, node 6, m/s
         84   -7.206E-03                                 F               0         Tower Z translation velocity, node 6, m/s
         85   -1.353E-03                                 F               0         Tower X translation velocity, node 7, m/s
         86    8.632E-06                                 F               0         Tower Y translation velocity, node 7, m/s
         87   -7.206E-03                                 F               0         Tower Z translation velocity, node 7, m/s
         88   -1.353E-03                                 F               0         Tower X translation velocity, node 8, m/s
         89    9.865E-06                                 F               0         Tower Y translation velocity, node 8, m/s
         90   -7.206E-03                                 F               0         Tower Z translation velocity, node 8, m/s
         91   -1.356E-03                                 F               0         Tower X translation velocity, node 9, m/s
         92    1.109E-05                                 F               0         Tower Y translation velocity, node 9, m/s
         93   -7.206E-03                                 F               0         Tower Z translation velocity, node 9, m/s
         94   -1.362E-03                                 F               0         Tower X translation velocity, node 10, m/s
         95    1.229E-05                                 F               0         Tower Y translation velocity, node 10, m/s
         96   -7.206E-03                                 F               0         Tower Z translation velocity, node 10, m/s
         97   -1.369E-03                                 F               0         Tower X translation velocity, node 11, m/s
         98    1.349E-05                                 F               0         Tower Y translation velocity, node 11, m/s
         99   -7.206E-03                                 F               0         Tower Z translation velocity, node 11, m/s
        100    1.140E+01                                 F               0         Hub X translation displacement, node 1, m
        101   -7.100E+00                                 F               0         Hub Y translation displacement, node 1, m
        102    7.933E-03                                 F               0         Hub Z translation displacement, node 1, m
        103    9.918E-01,  1.214E-02, -1.270E-01         F               0         Hub X orientation angle, node 1, rad
        104   -1.127E-01, -3.838E-01, -9.165E-01         F               0         Hub Y orientation angle, node 1, rad
        105   -5.987E-02,  9.234E-01, -3.793E-01         F               0         Hub Z orientation angle, node 1, rad
        106    8.866E-01                                 F               0         Hub X rotation velocity, node 1, rad/s
        107    1.085E-02                                 F               0         Hub Y rotation velocity, node 1, rad/s
        108   -1.135E-01                                 F               0         Hub Z rotation velocity, node 1, rad/s
        109    9.947E-01,  2.352E-02, -9.978E-02         F               0         Blade root 1 X orientation angle, node 1, rad
        110   -8.321E-02, -3.832E-01, -9.199E-01         F               0         Blade root 1 Y orientation angle, node 1, rad
        111   -5.987E-02,  9.234E-01, -3.793E-01         F               0         Blade root 1 Z orientation angle, node 1, rad
        112    9.913E-01, -1.728E-02, -1.308E-01         F               0         Blade root 2 X orientation angle, node 1, rad
        113    3.391E-02,  9.915E-01,  1.260E-01         F               0         Blade root 2 Y orientation angle, node 1, rad
        114    1.275E-01, -1.293E-01,  9.834E-01         F               0         Blade root 2 Z orientation angle, node 1, rad
        115    9.882E-01,  3.016E-02, -1.503E-01         F               0         Blade root 3 X orientation angle, node 1, rad
        116    1.376E-01, -6.071E-01,  7.826E-01         F               0         Blade root 3 Y orientation angle, node 1, rad
        117   -6.765E-02, -7.940E-01, -6.041E-01         F               0         Blade root 3 Z orientation angle, node 1, rad
        118    1.048E+01                                 F               0         Blade 1 X translation displacement, node 1, m
        119   -1.984E+00                                 F               0         Blade 1 Y translation displacement, node 1, m
        120   -7.603E+00                                 F               0         Blade 1 Z translation displacement, node 1, m
        121    1.027E+01                                 F               0         Blade 1 X translation displacement, node 2, m
        122   -7.518E-01                                 F               0         Blade 1 Y translation displacement, node 2, m
        123   -9.437E+00                                 F               0         Blade 1 Z translation displacement, node 2, m
        124    7.281E+00                                 F               0         Blade 1 X translation displacement, node 3, m
        125    1.601E+01                                 F               0         Blade 1 Y translation displacement, node 3, m
        126   -3.437E+01                                 F               0         Blade 1 Z translation displacement, node 3, m
        127    6.645E+00                                 F               0         Blade 1 X translation displacement, node 4, m
        128    1.958E+01                                 F               0         Blade 1 Y translation displacement, node 4, m
        129   -3.969E+01                                 F               0         Blade 1 Z translation displacement, node 4, m
        130    6.009E+00                                 F               0         Blade 1 X translation displacement, node 5, m
        131    2.315E+01                                 F               0         Blade 1 Y translation displacement, node 5, m
        132   -4.500E+01                                 F               0         Blade 1 Z translation displacement, node 5, m
        133    5.373E+00                                 F               0         Blade 1 X translation displacement, node 6, m
        134    2.672E+01                                 F               0         Blade 1 Y translation displacement, node 6, m
        135   -5.031E+01                                 F               0         Blade 1 Z translation displacement, node 6, m
        136    4.738E+00                                 F               0         Blade 1 X translation displacement, node 7, m
        137    3.029E+01                                 F               0         Blade 1 Y translation displacement, node 7, m
        138   -5.563E+01                                 F               0         Blade 1 Z translation displacement, node 7, m
        139    4.102E+00                                 F               0         Blade 1 X translation displacement, node 8, m
        140    3.387E+01                                 F               0         Blade 1 Y translation displacement, node 8, m
        141   -6.094E+01                                 F               0         Blade 1 Z translation displacement, node 8, m
        142    3.466E+00                                 F               0         Blade 1 X translation displacement, node 9, m
        143    3.744E+01                                 F               0         Blade 1 Y translation displacement, node 9, m
        144   -6.625E+01                                 F               0         Blade 1 Z translation displacement, node 9, m
        145    2.830E+00                                 F               0         Blade 1 X translation displacement, node 10, m
        146    4.101E+01                                 F               0         Blade 1 Y translation displacement, node 10, m
        147   -7.157E+01                                 F               0         Blade 1 Z translation displacement, node 10, m
        148    2.194E+00                                 F               0         Blade 1 X translation displacement, node 11, m
        149    4.458E+01                                 F               0         Blade 1 Y translation displacement, node 11, m
        150   -7.688E+01                                 F               0         Blade 1 Z translation displacement, node 11, m
        151    1.558E+00                                 F               0         Blade 1 X translation displacement, node 12, m
        152    4.815E+01                                 F               0         Blade 1 Y translation displacement, node 12, m
        153   -8.219E+01                                 F               0         Blade 1 Z translation displacement, node 12, m
        154    9.224E-01                                 F               0         Blade 1 X translation displacement, node 13, m
        155    5.172E+01                                 F               0         Blade 1 Y translation displacement, node 13, m
        156   -8.751E+01                                 F               0         Blade 1 Z translation displacement, node 13, m
        157    2.865E-01                                 F               0         Blade 1 X translation displacement, node 14, m
        158    5.529E+01                                 F               0         Blade 1 Y translation displacement, node 14, m
        159   -9.282E+01                                 F               0         Blade 1 Z translation displacement, node 14, m
        160   -3.494E-01                                 F               0         Blade 1 X translation displacement, node 15, m
        161    5.886E+01                                 F               0         Blade 1 Y translation displacement, node 15, m
        162   -9.814E+01                                 F               0         Blade 1 Z translation displacement, node 15, m
        163   -9.852E-01                                 F               0         Blade 1 X translation displacement, node 16, m
        164    6.244E+01                                 F               0         Blade 1 Y translation displacement, node 16, m
        165   -1.034E+02                                 F               0         Blade 1 Z translation displacement, node 16, m
        166   -1.621E+00                                 F               0         Blade 1 X translation displacement, node 17, m
        167    6.601E+01                                 F               0         Blade 1 Y translation displacement, node 17, m
        168   -1.088E+02                                 F               0         Blade 1 Z translation displacement, node 17, m
        169   -2.257E+00                                 F               0         Blade 1 X translation displacement, node 18, m
        170    6.958E+01                                 F               0         Blade 1 Y translation displacement, node 18, m
        171   -1.141E+02                                 F               0         Blade 1 Z translation displacement, node 18, m
        172   -2.893E+00                                 F               0         Blade 1 X translation displacement, node 19, m
        173    7.315E+01                                 F               0         Blade 1 Y translation displacement, node 19, m
        174   -1.194E+02                                 F               0         Blade 1 Z translation displacement, node 19, m
        175   -3.529E+00                                 F               0         Blade 1 X translation displacement, node 20, m
        176    7.672E+01                                 F               0         Blade 1 Y translation displacement, node 20, m
        177   -1.247E+02                                 F               0         Blade 1 Z translation displacement, node 20, m
        178   -4.164E+00                                 F               0         Blade 1 X translation displacement, node 21, m
        179    8.029E+01                                 F               0         Blade 1 Y translation displacement, node 21, m
        180   -1.300E+02                                 F               0         Blade 1 Z translation displacement, node 21, m
        181   -4.800E+00                                 F               0         Blade 1 X translation displacement, node 22, m
        182    8.386E+01                                 F               0         Blade 1 Y translation displacement, node 22, m
        183   -1.353E+02                                 F               0         Blade 1 Z translation displacement, node 22, m
        184   -5.436E+00                                 F               0         Blade 1 X translation displacement, node 23, m
        185    8.743E+01                                 F               0         Blade 1 Y translation displacement, node 23, m
        186   -1.406E+02                                 F               0         Blade 1 Z translation displacement, node 23, m
        187   -6.072E+00                                 F               0         Blade 1 X translation displacement, node 24, m
        188    9.101E+01                                 F               0         Blade 1 Y translation displacement, node 24, m
        189   -1.460E+02                                 F               0         Blade 1 Z translation displacement, node 24, m
        190   -6.708E+00                                 F               0         Blade 1 X translation displacement, node 25, m
        191    9.458E+01                                 F               0         Blade 1 Y translation displacement, node 25, m
        192   -1.513E+02                                 F               0         Blade 1 Z translation displacement, node 25, m
        193   -7.344E+00                                 F               0         Blade 1 X translation displacement, node 26, m
        194    9.815E+01                                 F               0         Blade 1 Y translation displacement, node 26, m
        195   -1.566E+02                                 F               0         Blade 1 Z translation displacement, node 26, m
        196   -7.980E+00                                 F               0         Blade 1 X translation displacement, node 27, m
        197    1.017E+02                                 F               0         Blade 1 Y translation displacement, node 27, m
        198   -1.619E+02                                 F               0         Blade 1 Z translation displacement, node 27, m
        199   -8.519E+00                                 F               0         Blade 1 X translation displacement, node 28, m
        200    1.047E+02                                 F               0         Blade 1 Y translation displacement, node 28, m
        201   -1.664E+02                                 F               0         Blade 1 Z translation displacement, node 28, m
        202    9.232E-01,  1.957E-01,  3.307E-01         F               0         Blade 1 X orientation angle, node 1, rad
        203    3.796E-01, -3.303E-01, -8.642E-01         F               0         Blade 1 Y orientation angle, node 1, rad
        204   -5.987E-02,  9.234E-01, -3.793E-01         F               0         Blade 1 Z orientation angle, node 1, rad
        205    9.232E-01,  1.957E-01,  3.307E-01         F               0         Blade 1 X orientation angle, node 2, rad
        206    3.796E-01, -3.303E-01, -8.642E-01         F               0         Blade 1 Y orientation angle, node 2, rad
        207   -5.987E-02,  9.234E-01, -3.793E-01         F               0         Blade 1 Z orientation angle, node 2, rad
        208    9.869E-01,  1.118E-01,  1.164E-01         F               0         Blade 1 X orientation angle, node 3, rad
        209    1.499E-01, -3.673E-01, -9.179E-01         F               0         Blade 1 Y orientation angle, node 3, rad
        210   -5.987E-02,  9.234E-01, -3.793E-01         F               0         Blade 1 Z orientation angle, node 3, rad
        211    9.923E-01,  9.621E-02,  7.758E-02         F               0         Blade 1 X orientation angle, node 4, rad
        212    1.081E-01, -3.717E-01, -9.220E-01         F               0         Blade 1 Y orientation angle, node 4, rad
        213   -5.987E-02,  9.234E-01, -3.793E-01         F               0         Blade 1 Z orientation angle, node 4, rad
        214    9.954E-01,  8.383E-02,  4.697E-02         F               0         Blade 1 X orientation angle, node 5, rad
        215    7.516E-02, -3.747E-01, -9.241E-01         F               0         Blade 1 Y orientation angle, node 5, rad
        216   -5.987E-02,  9.234E-01, -3.793E-01         F               0         Blade 1 Z orientation angle, node 5, rad
        217    9.970E-01,  7.387E-02,  2.244E-02         F               0         Blade 1 X orientation angle, node 6, rad
        218    4.873E-02, -3.768E-01, -9.250E-01         F               0         Blade 1 Y orientation angle, node 6, rad
        219   -5.987E-02,  9.234E-01, -3.793E-01         F               0         Blade 1 Z orientation angle, node 6, rad
        220    9.978E-01,  6.563E-02,  2.253E-03         F               0         Blade 1 X orientation angle, node 7, rad
        221    2.697E-02, -3.783E-01, -9.253E-01         F               0         Blade 1 Y orientation angle, node 7, rad
        222   -5.987E-02,  9.234E-01, -3.793E-01         F               0         Blade 1 Z orientation angle, node 7, rad
        223    9.982E-01,  5.875E-02, -1.454E-02         F               0         Blade 1 X orientation angle, node 8, rad
        224    8.855E-03, -3.794E-01, -9.252E-01         F               0         Blade 1 Y orientation angle, node 8, rad
        225   -5.987E-02,  9.234E-01, -3.793E-01         F               0         Blade 1 Z orientation angle, node 8, rad
        226    9.982E-01,  5.292E-02, -2.875E-02         F               0         Blade 1 X orientation angle, node 9, rad
        227   -6.476E-03, -3.803E-01, -9.248E-01         F               0         Blade 1 Y orientation angle, node 9, rad