
Linearized model: Predictions were generated on 31-Jan-2024 at 12:35:17 using OpenFAST, compiled as a 64-bit application using single precision at commit v3.5.1
 linked with  NWTC Subroutine Library; ElastoDyn; InflowWind; AeroDyn; ServoDyn; HydroDyn; MAP++ (<1.20.10>, <Oct-20-2023>)

Description from the FAST input file: CCT-9 Campign 4 model. Input files to be run with OpenFAST 3.5.0. GitHub branch from Lu Wang (https://github.com/luwang00/openfast/tree/dev) compiled on March 7, 2023.

Simulation information:
   Simulation time:                   504.2000 s
   Rotor Speed:                         0.8939 rad/s
   Azimuth:                             4.4999 rad
   Wind Speed:                         10.0000 m/s
   Number of continuous states:         0
   Number of discrete states:           0
   Number of constraint states:         0
   Number of inputs:                  303
   Number of outputs:                   1
   Jacobians included in this file?    No

Order of inputs:
     Column   Operating Point                     Rotating Frame? Derivative Order Description
   ---------- ---------------                     --------------- ---------------- -----------
          1   -1.080E+01                                 F               0         X-component position of node 1 (hub), m
          2    0.000E+00                                 F               0         Y-component position of node 1 (hub), m
          3    1.497E+02                                 F               0         Z-component position of node 1 (hub), m
          4    4.095E-01                                 F               0         X-component position of node 2 (blade 1, node 1), m
          5   -1.640E+00                                 F               0         Y-component position of node 2 (blade 1, node 1), m
          6    1.488E+02                                 F               0         Z-component position of node 2 (blade 1, node 1), m
          7    3.649E-01                                 F               0         X-component position of node 3 (blade 1, node 2), m
          8   -3.249E-01                                 F               0         Y-component position of node 3 (blade 1, node 2), m
          9    1.486E+02                                 F               0         Z-component position of node 3 (blade 1, node 2), m
         10   -2.416E-01                                 F               0         X-component position of node 4 (blade 1, node 3), m
         11    1.756E+01                                 F               0         Y-component position of node 4 (blade 1, node 3), m
         12    1.456E+02                                 F               0         Z-component position of node 4 (blade 1, node 3), m
         13   -3.708E-01                                 F               0         X-component position of node 5 (blade 1, node 4), m
         14    2.137E+01                                 F               0         Y-component position of node 5 (blade 1, node 4), m
         15    1.449E+02                                 F               0         Z-component position of node 5 (blade 1, node 4), m
         16   -5.000E-01                                 F               0         X-component position of node 6 (blade 1, node 5), m
         17    2.519E+01                                 F               0         Y-component position of node 6 (blade 1, node 5), m
         18    1.443E+02                                 F               0         Z-component position of node 6 (blade 1, node 5), m
         19   -6.292E-01                                 F               0         X-component position of node 7 (blade 1, node 6), m
         20    2.900E+01                                 F               0         Y-component position of node 7 (blade 1, node 6), m
         21    1.436E+02                                 F               0         Z-component position of node 7 (blade 1, node 6), m
         22   -7.585E-01                                 F               0         X-component position of node 8 (blade 1, node 7), m
         23    3.281E+01                                 F               0         Y-component position of node 8 (blade 1, node 7), m
         24    1.430E+02                                 F               0         Z-component position of node 8 (blade 1, node 7), m
         25   -8.877E-01                                 F               0         X-component position of node 9 (blade 1, node 8), m
         26    3.662E+01                                 F               0         Y-component position of node 9 (blade 1, node 8), m
         27    1.424E+02                                 F               0         Z-component position of node 9 (blade 1, node 8), m
         28   -1.017E+00                                 F               0         X-component position of node 10 (blade 1, node 9), m
         29    4.043E+01                                 F               0         Y-component position of node 10 (blade 1, node 9), m
         30    1.417E+02                                 F               0         Z-component position of node 10 (blade 1, node 9), m
         31   -1.146E+00                                 F               0         X-component position of node 11 (blade 1, node 10), m
         32    4.424E+01                                 F               0         Y-component position of node 11 (blade 1, node 10), m
         33    1.411E+02                                 F               0         Z-component position of node 11 (blade 1, node 10), m
         34   -1.275E+00                                 F               0         X-component position of node 12 (blade 1, node 11), m
         35    4.805E+01                                 F               0         Y-component position of node 12 (blade 1, node 11), m
         36    1.404E+02                                 F               0         Z-component position of node 12 (blade 1, node 11), m
         37   -1.405E+00                                 F               0         X-component position of node 13 (blade 1, node 12), m
         38    5.187E+01                                 F               0         Y-component position of node 13 (blade 1, node 12), m
         39    1.398E+02                                 F               0         Z-component position of node 13 (blade 1, node 12), m
         40   -1.534E+00                                 F               0         X-component position of node 14 (blade 1, node 13), m
         41    5.568E+01                                 F               0         Y-component position of node 14 (blade 1, node 13), m
         42    1.391E+02                                 F               0         Z-component position of node 14 (blade 1, node 13), m
         43   -1.663E+00                                 F               0         X-component position of node 15 (blade 1, node 14), m
         44    5.949E+01                                 F               0         Y-component position of node 15 (blade 1, node 14), m
         45    1.385E+02                                 F               0         Z-component position of node 15 (blade 1, node 14), m
         46   -1.792E+00                                 F               0         X-component position of node 16 (blade 1, node 15), m
         47    6.330E+01                                 F               0         Y-component position of node 16 (blade 1, node 15), m
         48    1.378E+02                                 F               0         Z-component position of node 16 (blade 1, node 15), m
         49   -1.922E+00                                 F               0         X-component position of node 17 (blade 1, node 16), m
         50    6.711E+01                                 F               0         Y-component position of node 17 (blade 1, node 16), m
         51    1.372E+02                                 F               0         Z-component position of node 17 (blade 1, node 16), m
         52   -2.051E+00                                 F               0         X-component position of node 18 (blade 1, node 17), m
         53    7.092E+01                                 F               0         Y-component position of node 18 (blade 1, node 17), m
         54    1.365E+02                                 F               0         Z-component position of node 18 (blade 1, node 17), m
         55   -2.180E+00                                 F               0         X-component position of node 19 (blade 1, node 18), m
         56    7.473E+01                                 F               0         Y-component position of node 19 (blade 1, node 18), m
         57    1.359E+02                                 F               0         Z-component position of node 19 (blade 1, node 18), m
         58   -2.309E+00                                 F               0         X-component position of node 20 (blade 1, node 19), m
         59    7.855E+01                                 F               0         Y-component position of node 20 (blade 1, node 19), m
         60    1.353E+02                                 F               0         Z-component position of node 20 (blade 1, node 19), m
         61   -2.438E+00                                 F               0         X-component position of node 21 (blade 1, node 20), m
         62    8.236E+01                                 F               0         Y-component position of node 21 (blade 1, node 20), m
         63    1.346E+02                                 F               0         Z-component position of node 21 (blade 1, node 20), m
         64   -2.568E+00                                 F               0         X-component position of node 22 (blade 1, node 21), m
         65    8.617E+01                                 F               0         Y-component position of node 22 (blade 1, node 21), m
         66    1.340E+02                                 F               0         Z-component position of node 22 (blade 1, node 21), m
         67   -2.697E+00                                 F               0         X-component position of node 23 (blade 1, node 22), m
         68    8.998E+01                                 F               0         Y-component position of node 23 (blade 1, node 22), m
         69    1.333E+02                                 F               0         Z-component position of node 23 (blade 1, node 22), m
         70   -2.826E+00                                 F               0         X-component position of node 24 (blade 1, node 23), m
         71    9.379E+01                                 F               0         Y-component position of node 24 (blade 1, node 23), m
         72    1.327E+02                                 F               0         Z-component position of node 24 (blade 1, node 23), m
         73   -2.955E+00                                 F               0         X-component position of node 25 (blade 1, node 24), m
         74    9.760E+01                                 F               0         Y-component position of node 25 (blade 1, node 24), m
         75    1.320E+02                                 F               0         Z-component position of node 25 (blade 1, node 24), m
         76   -3.085E+00                                 F               0         X-component position of node 26 (blade 1, node 25), m
         77    1.014E+02                                 F               0         Y-component position of node 26 (blade 1, node 25), m
         78    1.314E+02                                 F               0         Z-component position of node 26 (blade 1, node 25), m
         79   -3.214E+00                                 F               0         X-component position of node 27 (blade 1, node 26), m
         80    1.052E+02                                 F               0         Y-component position of node 27 (blade 1, node 26), m
         81    1.307E+02                                 F               0         Z-component position of node 27 (blade 1, node 26), m
         82   -3.343E+00                                 F               0         X-component position of node 28 (blade 1, node 27), m
         83    1.090E+02                                 F               0         Y-component position of node 28 (blade 1, node 27), m
         84    1.301E+02                                 F               0         Z-component position of node 28 (blade 1, node 27), m
         85   -3.453E+00                                 F               0         X-component position of node 29 (blade 1, node 28), m
         86    1.123E+02                                 F               0         Y-component position of node 29 (blade 1, node 28), m
         87    1.296E+02                                 F               0         Z-component position of node 29 (blade 1, node 28), m
         88    1.278E+00                                 F               0         X-component position of node 30 (blade 2, node 1), m
         89   -9.016E+00                                 F               0         Y-component position of node 30 (blade 2, node 1), m
         90    1.549E+02                                 F               0         Z-component position of node 30 (blade 2, node 1), m
         91    1.443E+00                                 F               0         X-component position of node 31 (blade 2, node 2), m
         92   -9.478E+00                                 F               0         Y-component position of node 31 (blade 2, node 2), m
         93    1.561E+02                                 F               0         Z-component position of node 31 (blade 2, node 2), m
         94    3.682E+00                                 F               0         X-component position of node 32 (blade 2, node 3), m
         95   -1.576E+01                                 F               0         Y-component position of node 32 (blade 2, node 3), m
         96    1.730E+02                                 F               0         Z-component position of node 32 (blade 2, node 3), m
         97    4.159E+00                                 F               0         X-component position of node 33 (blade 2, node 4), m
         98   -1.709E+01                                 F               0         Y-component position of node 33 (blade 2, node 4), m
         99    1.766E+02                                 F               0         Z-component position of node 33 (blade 2, node 4), m
        100    4.636E+00                                 F               0         X-component position of node 34 (blade 2, node 5), m
        101   -1.843E+01                                 F               0         Y-component position of node 34 (blade 2, node 5), m
        102    1.802E+02                                 F               0         Z-component position of node 34 (blade 2, node 5), m
        103    5.113E+00                                 F               0         X-component position of node 35 (blade 2, node 6), m
        104   -1.977E+01                                 F               0         Y-component position of node 35 (blade 2, node 6), m
        105    1.838E+02                                 F               0         Z-component position of node 35 (blade 2, node 6), m
        106    5.590E+00                                 F               0         X-component position of node 36 (blade 2, node 7), m
        107   -2.111E+01                                 F               0         Y-component position of node 36 (blade 2, node 7), m
        108    1.874E+02                                 F               0         Z-component position of node 36 (blade 2, node 7), m
        109    6.068E+00                                 F               0         X-component position of node 37 (blade 2, node 8), m
        110   -2.244E+01                                 F               0         Y-component position of node 37 (blade 2, node 8), m
        111    1.910E+02                                 F               0         Z-component position of node 37 (blade 2, node 8), m
        112    6.545E+00                                 F               0         X-component position of node 38 (blade 2, node 9), m
        113   -2.378E+01                                 F               0         Y-component position of node 38 (blade 2, node 9), m
        114    1.946E+02                                 F               0         Z-component position of node 38 (blade 2, node 9), m
        115    7.022E+00                                 F               0         X-component position of node 39 (blade 2, node 10), m
        116   -2.512E+01                                 F               0         Y-component position of node 39 (blade 2, node 10), m
        117    1.982E+02                                 F               0         Z-component position of node 39 (blade 2, node 10), m
        118    7.499E+00                                 F               0         X-component position of node 40 (blade 2, node 11), m
        119   -2.646E+01                                 F               0         Y-component position of node 40 (blade 2, node 11), m
        120    2.018E+02                                 F               0         Z-component position of node 40 (blade 2, node 11), m
        121    7.976E+00                                 F               0         X-component position of node 41 (blade 2, node 12), m
        122   -2.779E+01                                 F               0         Y-component position of node 41 (blade 2, node 12), m
        123    2.054E+02                                 F               0         Z-component position of node 41 (blade 2, node 12), m
        124    8.453E+00                                 F               0         X-component position of node 42 (blade 2, node 13), m
        125   -2.913E+01                                 F               0         Y-component position of node 42 (blade 2, node 13), m
        126    2.090E+02                                 F               0         Z-component position of node 42 (blade 2, node 13), m
        127    8.930E+00                                 F               0         X-component position of node 43 (blade 2, node 14), m
        128   -3.047E+01                                 F               0         Y-component position of node 43 (blade 2, node 14), m
        129    2.126E+02                                 F               0         Z-component position of node 43 (blade 2, node 14), m
        130    9.407E+00                                 F               0         X-component position of node 44 (blade 2, node 15), m
        131   -3.181E+01                                 F               0         Y-component position of node 44 (blade 2, node 15), m
        132    2.162E+02                                 F               0         Z-component position of node 44 (blade 2, node 15), m
        133    9.884E+00                                 F               0         X-component position of node 45 (blade 2, node 16), m
        134   -3.315E+01                                 F               0         Y-component position of node 45 (blade 2, node 16), m
        135    2.198E+02                                 F               0         Z-component position of node 45 (blade 2, node 16), m
        136    1.036E+01                                 F               0         X-component position of node 46 (blade 2, node 17), m
        137   -3.448E+01                                 F               0         Y-component position of node 46 (blade 2, node 17), m
        138    2.234E+02                                 F               0         Z-component position of node 46 (blade 2, node 17), m
        139    1.084E+01                                 F               0         X-component position of node 47 (blade 2, node 18), m
        140   -3.582E+01                                 F               0         Y-component position of node 47 (blade 2, node 18), m
        141    2.270E+02                                 F               0         Z-component position of node 47 (blade 2, node 18), m
        142    1.132E+01                                 F               0         X-component position of node 48 (blade 2, node 19), m
        143   -3.716E+01                                 F               0         Y-component position of node 48 (blade 2, node 19), m
        144    2.306E+02                                 F               0         Z-component position of node 48 (blade 2, node 19), m
        145    1.179E+01                                 F               0         X-component position of node 49 (blade 2, node 20), m
        146   -3.850E+01                                 F               0         Y-component position of node 49 (blade 2, node 20), m
        147    2.342E+02                                 F               0         Z-component position of node 49 (blade 2, node 20), m
        148    1.227E+01                                 F               0         X-component position of node 50 (blade 2, node 21), m
        149   -3.983E+01                                 F               0         Y-component position of node 50 (blade 2, node 21), m
        150    2.378E+02                                 F               0         Z-component position of node 50 (blade 2, node 21), m
        151    1.275E+01                                 F               0         X-component position of node 51 (blade 2, node 22), m
        152   -4.117E+01                                 F               0         Y-component position of node 51 (blade 2, node 22), m
        153    2.414E+02                                 F               0         Z-component position of node 51 (blade 2, node 22), m
        154    1.322E+01                                 F               0         X-component position of node 52 (blade 2, node 23), m
        155   -4.251E+01                                 F               0         Y-component position of node 52 (blade 2, node 23), m
        156    2.450E+02                                 F               0         Z-component position of node 52 (blade 2, node 23), m
        157    1.370E+01                                 F               0         X-component position of node 53 (blade 2, node 24), m
        158   -4.385E+01                                 F               0         Y-component position of node 53 (blade 2, node 24), m
        159    2.486E+02                                 F               0         Z-component position of node 53 (blade 2, node 24), m
        160    1.418E+01                                 F               0         X-component position of node 54 (blade 2, node 25), m
        161   -4.518E+01                                 F               0         Y-component position of node 54 (blade 2, node 25), m
        162    2.522E+02                                 F               0         Z-component position of node 54 (blade 2, node 25), m
        163    1.466E+01                                 F               0         X-component position of node 55 (blade 2, node 26), m
        164   -4.652E+01                                 F               0         Y-component position of node 55 (blade 2, node 26), m
        165    2.558E+02                                 F               0         Z-component position of node 55 (blade 2, node 26), m
        166    1.513E+01                                 F               0         X-component position of node 56 (blade 2, node 27), m
        167   -4.786E+01                                 F               0         Y-component position of node 56 (blade 2, node 27), m
        168    2.594E+02                                 F               0         Z-component position of node 56 (blade 2, node 27), m
        169    1.554E+01                                 F               0         X-component position of node 57 (blade 2, node 28), m
        170   -4.899E+01                                 F               0         Y-component position of node 57 (blade 2, node 28), m
        171    2.624E+02                                 F               0         Z-component position of node 57 (blade 2, node 28), m
        172    9.635E-02                                 F               0         X-component position of node 58 (blade 3, node 1), m
        173   -1.064E+01                                 F               0         Y-component position of node 58 (blade 3, node 1), m
        174    1.455E+02                                 F               0         Z-component position of node 58 (blade 3, node 1), m
        175   -2.372E-02                                 F               0         X-component position of node 59 (blade 3, node 2), m
        176   -1.150E+01                                 F               0         Y-component position of node 59 (blade 3, node 2), m
        177    1.445E+02                                 F               0         Z-component position of node 59 (blade 3, node 2), m
        178   -1.656E+00                                 F               0         X-component position of node 60 (blade 3, node 3), m
        179   -2.311E+01                                 F               0         Y-component position of node 60 (blade 3, node 3), m
        180    1.306E+02                                 F               0         Z-component position of node 60 (blade 3, node 3), m
        181   -2.004E+00                                 F               0         X-component position of node 61 (blade 3, node 4), m
        182   -2.558E+01                                 F               0         Y-component position of node 61 (blade 3, node 4), m
        183    1.277E+02                                 F               0         Z-component position of node 61 (blade 3, node 4), m
        184   -2.352E+00                                 F               0         X-component position of node 62 (blade 3, node 5), m
        185   -2.805E+01                                 F               0         Y-component position of node 62 (blade 3, node 5), m
        186    1.247E+02                                 F               0         Z-component position of node 62 (blade 3, node 5), m
        187   -2.700E+00                                 F               0         X-component position of node 63 (blade 3, node 6), m
        188   -3.053E+01                                 F               0         Y-component position of node 63 (blade 3, node 6), m
        189    1.218E+02                                 F               0         Z-component position of node 63 (blade 3, node 6), m
        190   -3.048E+00                                 F               0         X-component position of node 64 (blade 3, node 7), m
        191   -3.300E+01                                 F               0         Y-component position of node 64 (blade 3, node 7), m
        192    1.188E+02                                 F               0         Z-component position of node 64 (blade 3, node 7), m
        193   -3.396E+00                                 F               0         X-component position of node 65 (blade 3, node 8), m
        194   -3.548E+01                                 F               0         Y-component position of node 65 (blade 3, node 8), m
        195    1.159E+02                                 F               0         Z-component position of node 65 (blade 3, node 8), m
        196   -3.744E+00                                 F               0         X-component position of node 66 (blade 3, node 9), m
        197   -3.795E+01                                 F               0         Y-component position of node 66 (blade 3, node 9), m
        198    1.129E+02                                 F               0         Z-component position of node 66 (blade 3, node 9), m
        199   -4.092E+00                                 F               0         X-component position of node 67 (blade 3, node 10), m
        200   -4.042E+01                                 F               0         Y-component position of node 67 (blade 3, node 10), m
        201    1.100E+02                                 F               0         Z-component position of node 67 (blade 3, node 10), m
        202   -4.439E+00                                 F               0         X-component position of node 68 (blade 3, node 11), m
        203   -4.290E+01                                 F               0         Y-component position of node 68 (blade 3, node 11), m
        204    1.070E+02                                 F               0         Z-component position of node 68 (blade 3, node 11), m
        205   -4.787E+00                                 F               0         X-component position of node 69 (blade 3, node 12), m
        206   -4.537E+01                                 F               0         Y-component position of node 69 (blade 3, node 12), m
        207    1.041E+02                                 F               0         Z-component position of node 69 (blade 3, node 12), m
        208   -5.135E+00                                 F               0         X-component position of node 70 (blade 3, node 13), m
        209   -4.784E+01                                 F               0         Y-component position of node 70 (blade 3, node 13), m
        210    1.011E+02                                 F               0         Z-component position of node 70 (blade 3, node 13), m
        211   -5.483E+00                                 F               0         X-component position of node 71 (blade 3, node 14), m