
Linearized model: Predictions were generated on 31-Jan-2024 at 12:35:17 using OpenFAST, compiled as a 64-bit application using single precision at commit v3.5.1
 linked with  NWTC Subroutine Library; ElastoDyn; InflowWind; AeroDyn; ServoDyn; HydroDyn; MAP++ (<1.20.10>, <Oct-20-2023>)

Description from the FAST input file: CCT-9 Campign 4 model. Input files to be run with OpenFAST 3.5.0. GitHub branch from Lu Wang (https://github.com/luwang00/openfast/tree/dev) compiled on March 7, 2023.

Simulation information:
   Simulation time:                   501.5000 s
   Rotor Speed:                         0.8936 rad/s
   Azimuth:                             2.0866 rad
   Wind Speed:                         10.0000 m/s
   Number of continuous states:         0
   Number of discrete states:           0
   Number of constraint states:         0
   Number of inputs:                  303
   Number of outputs:                   1
   Jacobians included in this file?    No

Order of inputs:
     Column   Operating Point                     Rotating Frame? Derivative Order Description
   ---------- ---------------                     --------------- ---------------- -----------
          1   -1.080E+01                                 F               0         X-component position of node 1 (hub), m
          2    0.000E+00                                 F               0         Y-component position of node 1 (hub), m
          3    1.497E+02                                 F               0         Z-component position of node 1 (hub), m
          4    2.828E-01                                 F               0         X-component position of node 2 (blade 1, node 1), m
          5   -1.180E+01                                 F               0         Y-component position of node 2 (blade 1, node 1), m
          6    1.468E+02                                 F               0         Z-component position of node 2 (blade 1, node 1), m
          7    2.066E-01                                 F               0         X-component position of node 3 (blade 1, node 2), m
          8   -1.293E+01                                 F               0         Y-component position of node 3 (blade 1, node 2), m
          9    1.461E+02                                 F               0         Z-component position of node 3 (blade 1, node 2), m
         10   -8.290E-01                                 F               0         X-component position of node 4 (blade 1, node 3), m
         11   -2.833E+01                                 F               0         Y-component position of node 4 (blade 1, node 3), m
         12    1.366E+02                                 F               0         Z-component position of node 4 (blade 1, node 3), m
         13   -1.050E+00                                 F               0         X-component position of node 5 (blade 1, node 4), m
         14   -3.161E+01                                 F               0         Y-component position of node 5 (blade 1, node 4), m
         15    1.346E+02                                 F               0         Z-component position of node 5 (blade 1, node 4), m
         16   -1.270E+00                                 F               0         X-component position of node 6 (blade 1, node 5), m
         17   -3.489E+01                                 F               0         Y-component position of node 6 (blade 1, node 5), m
         18    1.325E+02                                 F               0         Z-component position of node 6 (blade 1, node 5), m
         19   -1.491E+00                                 F               0         X-component position of node 7 (blade 1, node 6), m
         20   -3.817E+01                                 F               0         Y-component position of node 7 (blade 1, node 6), m
         21    1.305E+02                                 F               0         Z-component position of node 7 (blade 1, node 6), m
         22   -1.712E+00                                 F               0         X-component position of node 8 (blade 1, node 7), m
         23   -4.146E+01                                 F               0         Y-component position of node 8 (blade 1, node 7), m
         24    1.284E+02                                 F               0         Z-component position of node 8 (blade 1, node 7), m
         25   -1.932E+00                                 F               0         X-component position of node 9 (blade 1, node 8), m
         26   -4.474E+01                                 F               0         Y-component position of node 9 (blade 1, node 8), m
         27    1.264E+02                                 F               0         Z-component position of node 9 (blade 1, node 8), m
         28   -2.153E+00                                 F               0         X-component position of node 10 (blade 1, node 9), m
         29   -4.802E+01                                 F               0         Y-component position of node 10 (blade 1, node 9), m
         30    1.244E+02                                 F               0         Z-component position of node 10 (blade 1, node 9), m
         31   -2.374E+00                                 F               0         X-component position of node 11 (blade 1, node 10), m
         32   -5.130E+01                                 F               0         Y-component position of node 11 (blade 1, node 10), m
         33    1.223E+02                                 F               0         Z-component position of node 11 (blade 1, node 10), m
         34   -2.594E+00                                 F               0         X-component position of node 12 (blade 1, node 11), m
         35   -5.458E+01                                 F               0         Y-component position of node 12 (blade 1, node 11), m
         36    1.203E+02                                 F               0         Z-component position of node 12 (blade 1, node 11), m
         37   -2.815E+00                                 F               0         X-component position of node 13 (blade 1, node 12), m
         38   -5.786E+01                                 F               0         Y-component position of node 13 (blade 1, node 12), m
         39    1.183E+02                                 F               0         Z-component position of node 13 (blade 1, node 12), m
         40   -3.035E+00                                 F               0         X-component position of node 14 (blade 1, node 13), m
         41   -6.114E+01                                 F               0         Y-component position of node 14 (blade 1, node 13), m
         42    1.162E+02                                 F               0         Z-component position of node 14 (blade 1, node 13), m
         43   -3.256E+00                                 F               0         X-component position of node 15 (blade 1, node 14), m
         44   -6.442E+01                                 F               0         Y-component position of node 15 (blade 1, node 14), m
         45    1.142E+02                                 F               0         Z-component position of node 15 (blade 1, node 14), m
         46   -3.477E+00                                 F               0         X-component position of node 16 (blade 1, node 15), m
         47   -6.770E+01                                 F               0         Y-component position of node 16 (blade 1, node 15), m
         48    1.122E+02                                 F               0         Z-component position of node 16 (blade 1, node 15), m
         49   -3.697E+00                                 F               0         X-component position of node 17 (blade 1, node 16), m
         50   -7.099E+01                                 F               0         Y-component position of node 17 (blade 1, node 16), m
         51    1.101E+02                                 F               0         Z-component position of node 17 (blade 1, node 16), m
         52   -3.918E+00                                 F               0         X-component position of node 18 (blade 1, node 17), m
         53   -7.427E+01                                 F               0         Y-component position of node 18 (blade 1, node 17), m
         54    1.081E+02                                 F               0         Z-component position of node 18 (blade 1, node 17), m
         55   -4.139E+00                                 F               0         X-component position of node 19 (blade 1, node 18), m
         56   -7.755E+01                                 F               0         Y-component position of node 19 (blade 1, node 18), m
         57    1.060E+02                                 F               0         Z-component position of node 19 (blade 1, node 18), m
         58   -4.359E+00                                 F               0         X-component position of node 20 (blade 1, node 19), m
         59   -8.083E+01                                 F               0         Y-component position of node 20 (blade 1, node 19), m
         60    1.040E+02                                 F               0         Z-component position of node 20 (blade 1, node 19), m
         61   -4.580E+00                                 F               0         X-component position of node 21 (blade 1, node 20), m
         62   -8.411E+01                                 F               0         Y-component position of node 21 (blade 1, node 20), m
         63    1.020E+02                                 F               0         Z-component position of node 21 (blade 1, node 20), m
         64   -4.801E+00                                 F               0         X-component position of node 22 (blade 1, node 21), m
         65   -8.739E+01                                 F               0         Y-component position of node 22 (blade 1, node 21), m
         66    9.994E+01                                 F               0         Z-component position of node 22 (blade 1, node 21), m
         67   -5.021E+00                                 F               0         X-component position of node 23 (blade 1, node 22), m
         68   -9.067E+01                                 F               0         Y-component position of node 23 (blade 1, node 22), m
         69    9.790E+01                                 F               0         Z-component position of node 23 (blade 1, node 22), m
         70   -5.242E+00                                 F               0         X-component position of node 24 (blade 1, node 23), m
         71   -9.395E+01                                 F               0         Y-component position of node 24 (blade 1, node 23), m
         72    9.587E+01                                 F               0         Z-component position of node 24 (blade 1, node 23), m
         73   -5.463E+00                                 F               0         X-component position of node 25 (blade 1, node 24), m
         74   -9.723E+01                                 F               0         Y-component position of node 25 (blade 1, node 24), m
         75    9.383E+01                                 F               0         Z-component position of node 25 (blade 1, node 24), m
         76   -5.683E+00                                 F               0         X-component position of node 26 (blade 1, node 25), m
         77   -1.005E+02                                 F               0         Y-component position of node 26 (blade 1, node 25), m
         78    9.180E+01                                 F               0         Z-component position of node 26 (blade 1, node 25), m
         79   -5.904E+00                                 F               0         X-component position of node 27 (blade 1, node 26), m
         80   -1.038E+02                                 F               0         Y-component position of node 27 (blade 1, node 26), m
         81    8.976E+01                                 F               0         Z-component position of node 27 (blade 1, node 26), m
         82   -6.125E+00                                 F               0         X-component position of node 28 (blade 1, node 27), m
         83   -1.071E+02                                 F               0         Y-component position of node 28 (blade 1, node 27), m
         84    8.772E+01                                 F               0         Z-component position of node 28 (blade 1, node 27), m
         85   -6.312E+00                                 F               0         X-component position of node 29 (blade 1, node 28), m
         86   -1.099E+02                                 F               0         Y-component position of node 29 (blade 1, node 28), m
         87    8.600E+01                                 F               0         Z-component position of node 29 (blade 1, node 28), m
         88    2.091E-01                                 F               0         X-component position of node 30 (blade 2, node 1), m
         89   -2.210E+00                                 F               0         Y-component position of node 30 (blade 2, node 1), m
         90    1.472E+02                                 F               0         Z-component position of node 30 (blade 2, node 1), m
         91    1.152E-01                                 F               0         X-component position of node 31 (blade 2, node 2), m
         92   -1.032E+00                                 F               0         Y-component position of node 31 (blade 2, node 2), m
         93    1.466E+02                                 F               0         Z-component position of node 31 (blade 2, node 2), m
         94   -1.162E+00                                 F               0         X-component position of node 32 (blade 2, node 3), m
         95    1.499E+01                                 F               0         Y-component position of node 32 (blade 2, node 3), m
         96    1.381E+02                                 F               0         Z-component position of node 32 (blade 2, node 3), m
         97   -1.434E+00                                 F               0         X-component position of node 33 (blade 2, node 4), m
         98    1.840E+01                                 F               0         Y-component position of node 33 (blade 2, node 4), m
         99    1.363E+02                                 F               0         Z-component position of node 33 (blade 2, node 4), m
        100   -1.706E+00                                 F               0         X-component position of node 34 (blade 2, node 5), m
        101    2.182E+01                                 F               0         Y-component position of node 34 (blade 2, node 5), m
        102    1.345E+02                                 F               0         Z-component position of node 34 (blade 2, node 5), m
        103   -1.978E+00                                 F               0         X-component position of node 35 (blade 2, node 6), m
        104    2.523E+01                                 F               0         Y-component position of node 35 (blade 2, node 6), m
        105    1.327E+02                                 F               0         Z-component position of node 35 (blade 2, node 6), m
        106   -2.250E+00                                 F               0         X-component position of node 36 (blade 2, node 7), m
        107    2.864E+01                                 F               0         Y-component position of node 36 (blade 2, node 7), m
        108    1.309E+02                                 F               0         Z-component position of node 36 (blade 2, node 7), m
        109   -2.522E+00                                 F               0         X-component position of node 37 (blade 2, node 8), m
        110    3.206E+01                                 F               0         Y-component position of node 37 (blade 2, node 8), m
        111    1.291E+02                                 F               0         Z-component position of node 37 (blade 2, node 8), m
        112   -2.794E+00                                 F               0         X-component position of node 38 (blade 2, node 9), m
        113    3.547E+01                                 F               0         Y-component position of node 38 (blade 2, node 9), m
        114    1.273E+02                                 F               0         Z-component position of node 38 (blade 2, node 9), m
        115   -3.066E+00                                 F               0         X-component position of node 39 (blade 2, node 10), m
        116    3.888E+01                                 F               0         Y-component position of node 39 (blade 2, node 10), m
        117    1.255E+02                                 F               0         Z-component position of node 39 (blade 2, node 10), m
        118   -3.338E+00                                 F               0         X-component position of node 40 (blade 2, node 11), m
        119    4.230E+01                                 F               0         Y-component position of node 40 (blade 2, node 11), m
        120    1.237E+02                                 F               0         Z-component position of node 40 (blade 2, node 11), m
        121   -3.610E+00                                 F               0         X-component position of node 41 (blade 2, node 12), m
        122    4.571E+01                                 F               0         Y-component position of node 41 (blade 2, node 12), m
        123    1.219E+02                                 F               0         Z-component position of node 41 (blade 2, node 12), m
        124   -3.882E+00                                 F               0         X-component position of node 42 (blade 2, node 13), m
        125    4.912E+01                                 F               0         Y-component position of node 42 (blade 2, node 13), m
        126    1.201E+02                                 F               0         Z-component position of node 42 (blade 2, node 13), m
        127   -4.154E+00                                 F               0         X-component position of node 43 (blade 2, node 14), m
        128    5.254E+01                                 F               0         Y-component position of node 43 (blade 2, node 14), m
        129    1.183E+02                                 F               0         Z-component position of node 43 (blade 2, node 14), m
        130   -4.427E+00                                 F               0         X-component position of node 44 (blade 2, node 15), m
        131    5.595E+01                                 F               0         Y-component position of node 44 (blade 2, node 15), m
        132    1.166E+02                                 F               0         Z-component position of node 44 (blade 2, node 15), m
        133   -4.699E+00                                 F               0         X-component position of node 45 (blade 2, node 16), m
        134    5.937E+01                                 F               0         Y-component position of node 45 (blade 2, node 16), m
        135    1.148E+02                                 F               0         Z-component position of node 45 (blade 2, node 16), m
        136   -4.971E+00                                 F               0         X-component position of node 46 (blade 2, node 17), m
        137    6.278E+01                                 F               0         Y-component position of node 46 (blade 2, node 17), m
        138    1.130E+02                                 F               0         Z-component position of node 46 (blade 2, node 17), m
        139   -5.243E+00                                 F               0         X-component position of node 47 (blade 2, node 18), m
        140    6.619E+01                                 F               0         Y-component position of node 47 (blade 2, node 18), m
        141    1.112E+02                                 F               0         Z-component position of node 47 (blade 2, node 18), m
        142   -5.515E+00                                 F               0         X-component position of node 48 (blade 2, node 19), m
        143    6.961E+01                                 F               0         Y-component position of node 48 (blade 2, node 19), m
        144    1.094E+02                                 F               0         Z-component position of node 48 (blade 2, node 19), m
        145   -5.787E+00                                 F               0         X-component position of node 49 (blade 2, node 20), m
        146    7.302E+01                                 F               0         Y-component position of node 49 (blade 2, node 20), m
        147    1.076E+02                                 F               0         Z-component position of node 49 (blade 2, node 20), m
        148   -6.059E+00                                 F               0         X-component position of node 50 (blade 2, node 21), m
        149    7.643E+01                                 F               0         Y-component position of node 50 (blade 2, node 21), m
        150    1.058E+02                                 F               0         Z-component position of node 50 (blade 2, node 21), m
        151   -6.331E+00                                 F               0         X-component position of node 51 (blade 2, node 22), m
        152    7.985E+01                                 F               0         Y-component position of node 51 (blade 2, node 22), m
        153    1.040E+02                                 F               0         Z-component position of node 51 (blade 2, node 22), m
        154   -6.603E+00                                 F               0         X-component position of node 52 (blade 2, node 23), m
        155    8.326E+01                                 F               0         Y-component position of node 52 (blade 2, node 23), m
        156    1.022E+02                                 F               0         Z-component position of node 52 (blade 2, node 23), m
        157   -6.875E+00                                 F               0         X-component position of node 53 (blade 2, node 24), m
        158    8.667E+01                                 F               0         Y-component position of node 53 (blade 2, node 24), m
        159    1.004E+02                                 F               0         Z-component position of node 53 (blade 2, node 24), m
        160   -7.147E+00                                 F               0         X-component position of node 54 (blade 2, node 25), m
        161    9.009E+01                                 F               0         Y-component position of node 54 (blade 2, node 25), m
        162    9.857E+01                                 F               0         Z-component position of node 54 (blade 2, node 25), m
        163   -7.419E+00                                 F               0         X-component position of node 55 (blade 2, node 26), m
        164    9.350E+01                                 F               0         Y-component position of node 55 (blade 2, node 26), m
        165    9.677E+01                                 F               0         Z-component position of node 55 (blade 2, node 26), m
        166   -7.691E+00                                 F               0         X-component position of node 56 (blade 2, node 27), m
        167    9.691E+01                                 F               0         Y-component position of node 56 (blade 2, node 27), m
        168    9.497E+01                                 F               0         Z-component position of node 56 (blade 2, node 27), m
        169   -7.922E+00                                 F               0         X-component position of node 57 (blade 2, node 28), m
        170    9.981E+01                                 F               0         Y-component position of node 57 (blade 2, node 28), m
        171    9.345E+01                                 F               0         Z-component position of node 57 (blade 2, node 28), m
        172    1.305E+00                                 F               0         X-component position of node 58 (blade 3, node 1), m
        173   -7.289E+00                                 F               0         Y-component position of node 58 (blade 3, node 1), m
        174    1.553E+02                                 F               0         Z-component position of node 58 (blade 3, node 1), m
        175    1.475E+00                                 F               0         X-component position of node 59 (blade 3, node 2), m
        176   -7.335E+00                                 F               0         Y-component position of node 59 (blade 3, node 2), m
        177    1.566E+02                                 F               0         Z-component position of node 59 (blade 3, node 2), m
        178    3.787E+00                                 F               0         X-component position of node 60 (blade 3, node 3), m
        179   -7.957E+00                                 F               0         Y-component position of node 60 (blade 3, node 3), m
        180    1.746E+02                                 F               0         Z-component position of node 60 (blade 3, node 3), m
        181    4.280E+00                                 F               0         X-component position of node 61 (blade 3, node 4), m
        182   -8.089E+00                                 F               0         Y-component position of node 61 (blade 3, node 4), m
        183    1.784E+02                                 F               0         Z-component position of node 61 (blade 3, node 4), m
        184    4.773E+00                                 F               0         X-component position of node 62 (blade 3, node 5), m
        185   -8.222E+00                                 F               0         Y-component position of node 62 (blade 3, node 5), m
        186    1.822E+02                                 F               0         Z-component position of node 62 (blade 3, node 5), m
        187    5.265E+00                                 F               0         X-component position of node 63 (blade 3, node 6), m
        188   -8.354E+00                                 F               0         Y-component position of node 63 (blade 3, node 6), m
        189    1.861E+02                                 F               0         Z-component position of node 63 (blade 3, node 6), m
        190    5.758E+00                                 F               0         X-component position of node 64 (blade 3, node 7), m
        191   -8.487E+00                                 F               0         Y-component position of node 64 (blade 3, node 7), m
        192    1.899E+02                                 F               0         Z-component position of node 64 (blade 3, node 7), m
        193    6.251E+00                                 F               0         X-component position of node 65 (blade 3, node 8), m
        194   -8.619E+00                                 F               0         Y-component position of node 65 (blade 3, node 8), m
        195    1.937E+02                                 F               0         Z-component position of node 65 (blade 3, node 8), m
        196    6.743E+00                                 F               0         X-component position of node 66 (blade 3, node 9), m
        197   -8.752E+00                                 F               0         Y-component position of node 66 (blade 3, node 9), m
        198    1.976E+02                                 F               0         Z-component position of node 66 (blade 3, node 9), m
        199    7.236E+00                                 F               0         X-component position of node 67 (blade 3, node 10), m
        200   -8.884E+00                                 F               0         Y-component position of node 67 (blade 3, node 10), m
        201    2.014E+02                                 F               0         Z-component position of node 67 (blade 3, node 10), m
        202    7.729E+00                                 F               0         X-component position of node 68 (blade 3, node 11), m
        203   -9.017E+00                                 F               0         Y-component position of node 68 (blade 3, node 11), m
        204    2.052E+02                                 F               0         Z-component position of node 68 (blade 3, node 11), m
        205    8.222E+00                                 F               0         X-component position of node 69 (blade 3, node 12), m
        206   -9.149E+00                                 F               0         Y-component position of node 69 (blade 3, node 12), m
        207    2.091E+02                                 F               0         Z-component position of node 69 (blade 3, node 12), m
        208    8.714E+00                                 F               0         X-component position of node 70 (blade 3, node 13), m
        209   -9.282E+00                                 F               0         Y-component position of node 70 (blade 3, node 13), m
        210    2.129E+02                                 F               0         Z-component position of node 70 (blade 3, node 13), m
        211    9.207E+00                                 F               0         X-component position of node 71 (blade 3, node 14), m