
Linearized model: Predictions were generated on 06-Feb-2024 at 16:18:08 using OpenFAST, compiled as a 64-bit application using single precision at commit v3.5.1
 linked with  NWTC Subroutine Library; ElastoDyn; InflowWind; AeroDyn; ServoDyn; HydroDyn; MAP++ (<1.20.10>, <Oct-20-2023>)

Description from the FAST input file: CCT-9 Campign 4 model. Input files to be run with OpenFAST 3.5.0. GitHub branch from Lu Wang (https://github.com/luwang00/openfast/tree/dev) compiled on March 7, 2023.

Simulation information:
   Simulation time:                  1001.0000 s
   Rotor Speed:                         1.0420 rad/s
   Azimuth:                             2.5424 rad
   Wind Speed:                         12.0000 m/s
   Number of continuous states:        18
   Number of discrete states:           0
   Number of constraint states:         0
   Number of inputs:                 3988
   Number of outputs:                  36
   Jacobians included in this file?    No

Order of continuous states:
   Row/Column Operating Point                     Rotating Frame? Derivative Order Description
   ---------- ---------------                     --------------- ---------------- -----------
          1    1.231E+01                                 F               2         ED Platform horizontal surge translation DOF (internal DOF index = DOF_Sg), m
          2   -2.566E-01                                 F               2         ED Platform vertical heave translation DOF (internal DOF index = DOF_Hv), m
          3    4.691E-02                                 F               2         ED Platform roll tilt rotation DOF (internal DOF index = DOF_R), rad
          4    1.559E-01                                 F               2         ED Platform pitch tilt rotation DOF (internal DOF index = DOF_P), rad
          5    1.081E+00                                 F               2         ED 1st tower fore-aft bending mode DOF (internal DOF index = DOF_TFA1), m
          6    1.776E-01                                 F               2         ED 1st tower side-to-side bending mode DOF (internal DOF index = DOF_TSS1), m
          7    1.611E-03                                 F               2         ED 2nd tower fore-aft bending mode DOF (internal DOF index = DOF_TFA2), m
          8    7.585E-05                                 F               2         ED 2nd tower side-to-side bending mode DOF (internal DOF index = DOF_TSS2), m
          9    9.716E-01                                 F               2         ED Variable speed generator DOF (internal DOF index = DOF_GeAz), rad
         10    1.981E-04                                 F               2         ED First time derivative of Platform horizontal surge translation DOF (internal DOF index = DOF_Sg), m/s
         11   -2.089E-03                                 F               2         ED First time derivative of Platform vertical heave translation DOF (internal DOF index = DOF_Hv), m/s
         12   -1.020E-05                                 F               2         ED First time derivative of Platform roll tilt rotation DOF (internal DOF index = DOF_R), rad/s
         13    3.388E-06                                 F               2         ED First time derivative of Platform pitch tilt rotation DOF (internal DOF index = DOF_P), rad/s
         14   -2.195E-04                                 F               2         ED First time derivative of 1st tower fore-aft bending mode DOF (internal DOF index = DOF_TFA1), m/s
         15    5.353E-04                                 F               2         ED First time derivative of 1st tower side-to-side bending mode DOF (internal DOF index = DOF_TSS1), m/s
         16    9.474E-06                                 F               2         ED First time derivative of 2nd tower fore-aft bending mode DOF (internal DOF index = DOF_TFA2), m/s
         17    9.545E-07                                 F               2         ED First time derivative of 2nd tower side-to-side bending mode DOF (internal DOF index = DOF_TSS2), m/s
         18    1.042E+00                                 F               2         ED First time derivative of Variable speed generator DOF (internal DOF index = DOF_GeAz), rad/s

Order of continuous state derivatives:
   Row/Column Operating Point                     Rotating Frame? Derivative Order Description
   ---------- ---------------                     --------------- ---------------- -----------
          1    1.981E-04                                 F               2         First time derivative of ED Platform horizontal surge translation DOF (internal DOF index = DOF_Sg), m/s
          2   -2.089E-03                                 F               2         First time derivative of ED Platform vertical heave translation DOF (internal DOF index = DOF_Hv), m/s
          3   -1.020E-05                                 F               2         First time derivative of ED Platform roll tilt rotation DOF (internal DOF index = DOF_R), rad/s
          4    3.388E-06                                 F               2         First time derivative of ED Platform pitch tilt rotation DOF (internal DOF index = DOF_P), rad/s
          5   -2.195E-04                                 F               2         First time derivative of ED 1st tower fore-aft bending mode DOF (internal DOF index = DOF_TFA1), m/s
          6    5.353E-04                                 F               2         First time derivative of ED 1st tower side-to-side bending mode DOF (internal DOF index = DOF_TSS1), m/s
          7    9.474E-06                                 F               2         First time derivative of ED 2nd tower fore-aft bending mode DOF (internal DOF index = DOF_TFA2), m/s
          8    9.545E-07                                 F               2         First time derivative of ED 2nd tower side-to-side bending mode DOF (internal DOF index = DOF_TSS2), m/s
          9    1.042E+00                                 F               2         First time derivative of ED Variable speed generator DOF (internal DOF index = DOF_GeAz), rad/s
         10    4.059E-04                                 F               2         First time derivative of ED First time derivative of Platform horizontal surge translation DOF (internal DOF index = DOF_Sg), m/s/s
         11    1.361E-03                                 F               2         First time derivative of ED First time derivative of Platform vertical heave translation DOF (internal DOF index = DOF_Hv), m/s/s
         12    4.577E-05                                 F               2         First time derivative of ED First time derivative of Platform roll tilt rotation DOF (internal DOF index = DOF_R), rad/s/s
         13    2.254E-05                                 F               2         First time derivative of ED First time derivative of Platform pitch tilt rotation DOF (internal DOF index = DOF_P), rad/s/s
         14   -6.108E-03                                 F               2         First time derivative of ED First time derivative of 1st tower fore-aft bending mode DOF (internal DOF index = DOF_TFA1), m/s/s
         15   -1.659E-03                                 F               2         First time derivative of ED First time derivative of 1st tower side-to-side bending mode DOF (internal DOF index = DOF_TSS1), m/s/s
         16   -4.098E-05                                 F               2         First time derivative of ED First time derivative of 2nd tower fore-aft bending mode DOF (internal DOF index = DOF_TFA2), m/s/s
         17    4.149E-06                                 F               2         First time derivative of ED First time derivative of 2nd tower side-to-side bending mode DOF (internal DOF index = DOF_TSS2), m/s/s
         18    1.447E-04                                 F               2         First time derivative of ED First time derivative of Variable speed generator DOF (internal DOF index = DOF_GeAz), rad/s/s

Order of inputs:
     Column   Operating Point                     Rotating Frame? Derivative Order Description
   ---------- ---------------                     --------------- ---------------- -----------
          1   -1.080E+01                                 F               0         IfW X-component position of node 1 (hub), m
          2    0.000E+00                                 F               0         IfW Y-component position of node 1 (hub), m
          3    1.497E+02                                 F               0         IfW Z-component position of node 1 (hub), m
          4    2.457E+01                                 F               0         IfW X-component position of node 2 (blade 1, node 1), m
          5   -1.064E+01                                 F               0         IfW Y-component position of node 2 (blade 1, node 1), m
          6    1.446E+02                                 F               0         IfW Z-component position of node 2 (blade 1, node 1), m
          7    2.427E+01                                 F               0         IfW X-component position of node 3 (blade 1, node 2), m
          8   -1.134E+01                                 F               0         IfW Y-component position of node 3 (blade 1, node 2), m
          9    1.435E+02                                 F               0         IfW Z-component position of node 3 (blade 1, node 2), m
         10    2.013E+01                                 F               0         IfW X-component position of node 4 (blade 1, node 3), m
         11   -2.083E+01                                 F               0         IfW Y-component position of node 4 (blade 1, node 3), m
         12    1.286E+02                                 F               0         IfW Z-component position of node 4 (blade 1, node 3), m
         13    1.925E+01                                 F               0         IfW X-component position of node 5 (blade 1, node 4), m
         14   -2.285E+01                                 F               0         IfW Y-component position of node 5 (blade 1, node 4), m
         15    1.254E+02                                 F               0         IfW Z-component position of node 5 (blade 1, node 4), m
         16    1.837E+01                                 F               0         IfW X-component position of node 6 (blade 1, node 5), m
         17   -2.487E+01                                 F               0         IfW Y-component position of node 6 (blade 1, node 5), m
         18    1.222E+02                                 F               0         IfW Z-component position of node 6 (blade 1, node 5), m
         19    1.749E+01                                 F               0         IfW X-component position of node 7 (blade 1, node 6), m
         20   -2.690E+01                                 F               0         IfW Y-component position of node 7 (blade 1, node 6), m
         21    1.191E+02                                 F               0         IfW Z-component position of node 7 (blade 1, node 6), m
         22    1.661E+01                                 F               0         IfW X-component position of node 8 (blade 1, node 7), m
         23   -2.892E+01                                 F               0         IfW Y-component position of node 8 (blade 1, node 7), m
         24    1.159E+02                                 F               0         IfW Z-component position of node 8 (blade 1, node 7), m
         25    1.573E+01                                 F               0         IfW X-component position of node 9 (blade 1, node 8), m
         26   -3.094E+01                                 F               0         IfW Y-component position of node 9 (blade 1, node 8), m
         27    1.127E+02                                 F               0         IfW Z-component position of node 9 (blade 1, node 8), m
         28    1.484E+01                                 F               0         IfW X-component position of node 10 (blade 1, node 9), m
         29   -3.296E+01                                 F               0         IfW Y-component position of node 10 (blade 1, node 9), m
         30    1.095E+02                                 F               0         IfW Z-component position of node 10 (blade 1, node 9), m
         31    1.396E+01                                 F               0         IfW X-component position of node 11 (blade 1, node 10), m
         32   -3.498E+01                                 F               0         IfW Y-component position of node 11 (blade 1, node 10), m
         33    1.063E+02                                 F               0         IfW Z-component position of node 11 (blade 1, node 10), m
         34    1.308E+01                                 F               0         IfW X-component position of node 12 (blade 1, node 11), m
         35   -3.701E+01                                 F               0         IfW Y-component position of node 12 (blade 1, node 11), m
         36    1.032E+02                                 F               0         IfW Z-component position of node 12 (blade 1, node 11), m
         37    1.220E+01                                 F               0         IfW X-component position of node 13 (blade 1, node 12), m
         38   -3.903E+01                                 F               0         IfW Y-component position of node 13 (blade 1, node 12), m
         39    9.999E+01                                 F               0         IfW Z-component position of node 13 (blade 1, node 12), m
         40    1.132E+01                                 F               0         IfW X-component position of node 14 (blade 1, node 13), m
         41   -4.105E+01                                 F               0         IfW Y-component position of node 14 (blade 1, node 13), m
         42    9.681E+01                                 F               0         IfW Z-component position of node 14 (blade 1, node 13), m
         43    1.044E+01                                 F               0         IfW X-component position of node 15 (blade 1, node 14), m
         44   -4.307E+01                                 F               0         IfW Y-component position of node 15 (blade 1, node 14), m
         45    9.364E+01                                 F               0         IfW Z-component position of node 15 (blade 1, node 14), m
         46    9.555E+00                                 F               0         IfW X-component position of node 16 (blade 1, node 15), m
         47   -4.509E+01                                 F               0         IfW Y-component position of node 16 (blade 1, node 15), m
         48    9.046E+01                                 F               0         IfW Z-component position of node 16 (blade 1, node 15), m
         49    8.674E+00                                 F               0         IfW X-component position of node 17 (blade 1, node 16), m
         50   -4.712E+01                                 F               0         IfW Y-component position of node 17 (blade 1, node 16), m
         51    8.728E+01                                 F               0         IfW Z-component position of node 17 (blade 1, node 16), m
         52    7.792E+00                                 F               0         IfW X-component position of node 18 (blade 1, node 17), m
         53   -4.914E+01                                 F               0         IfW Y-component position of node 18 (blade 1, node 17), m
         54    8.411E+01                                 F               0         IfW Z-component position of node 18 (blade 1, node 17), m
         55    6.911E+00                                 F               0         IfW X-component position of node 19 (blade 1, node 18), m
         56   -5.116E+01                                 F               0         IfW Y-component position of node 19 (blade 1, node 18), m
         57    8.093E+01                                 F               0         IfW Z-component position of node 19 (blade 1, node 18), m
         58    6.029E+00                                 F               0         IfW X-component position of node 20 (blade 1, node 19), m
         59   -5.318E+01                                 F               0         IfW Y-component position of node 20 (blade 1, node 19), m
         60    7.775E+01                                 F               0         IfW Z-component position of node 20 (blade 1, node 19), m
         61    5.148E+00                                 F               0         IfW X-component position of node 21 (blade 1, node 20), m
         62   -5.520E+01                                 F               0         IfW Y-component position of node 21 (blade 1, node 20), m
         63    7.457E+01                                 F               0         IfW Z-component position of node 21 (blade 1, node 20), m
         64    4.266E+00                                 F               0         IfW X-component position of node 22 (blade 1, node 21), m
         65   -5.723E+01                                 F               0         IfW Y-component position of node 22 (blade 1, node 21), m
         66    7.140E+01                                 F               0         IfW Z-component position of node 22 (blade 1, node 21), m
         67    3.385E+00                                 F               0         IfW X-component position of node 23 (blade 1, node 22), m
         68   -5.925E+01                                 F               0         IfW Y-component position of node 23 (blade 1, node 22), m
         69    6.822E+01                                 F               0         IfW Z-component position of node 23 (blade 1, node 22), m
         70    2.503E+00                                 F               0         IfW X-component position of node 24 (blade 1, node 23), m
         71   -6.127E+01                                 F               0         IfW Y-component position of node 24 (blade 1, node 23), m
         72    6.504E+01                                 F               0         IfW Z-component position of node 24 (blade 1, node 23), m
         73    1.622E+00                                 F               0         IfW X-component position of node 25 (blade 1, node 24), m
         74   -6.329E+01                                 F               0         IfW Y-component position of node 25 (blade 1, node 24), m
         75    6.187E+01                                 F               0         IfW Z-component position of node 25 (blade 1, node 24), m
         76    7.402E-01                                 F               0         IfW X-component position of node 26 (blade 1, node 25), m
         77   -6.531E+01                                 F               0         IfW Y-component position of node 26 (blade 1, node 25), m
         78    5.869E+01                                 F               0         IfW Z-component position of node 26 (blade 1, node 25), m
         79   -1.414E-01                                 F               0         IfW X-component position of node 27 (blade 1, node 26), m
         80   -6.734E+01                                 F               0         IfW Y-component position of node 27 (blade 1, node 26), m
         81    5.551E+01                                 F               0         IfW Z-component position of node 27 (blade 1, node 26), m
         82   -1.023E+00                                 F               0         IfW X-component position of node 28 (blade 1, node 27), m
         83   -6.936E+01                                 F               0         IfW Y-component position of node 28 (blade 1, node 27), m
         84    5.234E+01                                 F               0         IfW Z-component position of node 28 (blade 1, node 27), m
         85   -1.770E+00                                 F               0         IfW X-component position of node 29 (blade 1, node 28), m
         86   -7.107E+01                                 F               0         IfW Y-component position of node 29 (blade 1, node 28), m
         87    4.964E+01                                 F               0         IfW Z-component position of node 29 (blade 1, node 28), m
         88    2.579E+01                                 F               0         IfW X-component position of node 30 (blade 2, node 1), m
         89   -2.207E+00                                 F               0         IfW Y-component position of node 30 (blade 2, node 1), m
         90    1.490E+02                                 F               0         IfW Z-component position of node 30 (blade 2, node 1), m
         91    2.577E+01                                 F               0         IfW X-component position of node 31 (blade 2, node 2), m
         92   -8.731E-01                                 F               0         IfW Y-component position of node 31 (blade 2, node 2), m
         93    1.490E+02                                 F               0         IfW Z-component position of node 31 (blade 2, node 2), m
         94    2.561E+01                                 F               0         IfW X-component position of node 32 (blade 2, node 3), m
         95    1.727E+01                                 F               0         IfW Y-component position of node 32 (blade 2, node 3), m
         96    1.485E+02                                 F               0         IfW Z-component position of node 32 (blade 2, node 3), m
         97    2.557E+01                                 F               0         IfW X-component position of node 33 (blade 2, node 4), m
         98    2.114E+01                                 F               0         IfW Y-component position of node 33 (blade 2, node 4), m
         99    1.484E+02                                 F               0         IfW Z-component position of node 33 (blade 2, node 4), m
        100    2.553E+01                                 F               0         IfW X-component position of node 34 (blade 2, node 5), m
        101    2.501E+01                                 F               0         IfW Y-component position of node 34 (blade 2, node 5), m
        102    1.483E+02                                 F               0         IfW Z-component position of node 34 (blade 2, node 5), m
        103    2.550E+01                                 F               0         IfW X-component position of node 35 (blade 2, node 6), m
        104    2.887E+01                                 F               0         IfW Y-component position of node 35 (blade 2, node 6), m
        105    1.482E+02                                 F               0         IfW Z-component position of node 35 (blade 2, node 6), m
        106    2.546E+01                                 F               0         IfW X-component position of node 36 (blade 2, node 7), m
        107    3.274E+01                                 F               0         IfW Y-component position of node 36 (blade 2, node 7), m
        108    1.481E+02                                 F               0         IfW Z-component position of node 36 (blade 2, node 7), m
        109    2.543E+01                                 F               0         IfW X-component position of node 37 (blade 2, node 8), m
        110    3.660E+01                                 F               0         IfW Y-component position of node 37 (blade 2, node 8), m
        111    1.480E+02                                 F               0         IfW Z-component position of node 37 (blade 2, node 8), m
        112    2.539E+01                                 F               0         IfW X-component position of node 38 (blade 2, node 9), m
        113    4.047E+01                                 F               0         IfW Y-component position of node 38 (blade 2, node 9), m
        114    1.479E+02                                 F               0         IfW Z-component position of node 38 (blade 2, node 9), m
        115    2.535E+01                                 F               0         IfW X-component position of node 39 (blade 2, node 10), m
        116    4.434E+01                                 F               0         IfW Y-component position of node 39 (blade 2, node 10), m
        117    1.478E+02                                 F               0         IfW Z-component position of node 39 (blade 2, node 10), m
        118    2.532E+01                                 F               0         IfW X-component position of node 40 (blade 2, node 11), m
        119    4.820E+01                                 F               0         IfW Y-component position of node 40 (blade 2, node 11), m
        120    1.477E+02                                 F               0         IfW Z-component position of node 40 (blade 2, node 11), m
        121    2.528E+01                                 F               0         IfW X-component position of node 41 (blade 2, node 12), m
        122    5.207E+01                                 F               0         IfW Y-component position of node 41 (blade 2, node 12), m
        123    1.476E+02                                 F               0         IfW Z-component position of node 41 (blade 2, node 12), m
        124    2.525E+01                                 F               0         IfW X-component position of node 42 (blade 2, node 13), m
        125    5.594E+01                                 F               0         IfW Y-component position of node 42 (blade 2, node 13), m
        126    1.476E+02                                 F               0         IfW Z-component position of node 42 (blade 2, node 13), m
        127    2.521E+01                                 F               0         IfW X-component position of node 43 (blade 2, node 14), m
        128    5.980E+01                                 F               0         IfW Y-component position of node 43 (blade 2, node 14), m
        129    1.475E+02                                 F               0         IfW Z-component position of node 43 (blade 2, node 14), m
        130    2.518E+01                                 F               0         IfW X-component position of node 44 (blade 2, node 15), m
        131    6.367E+01                                 F               0         IfW Y-component position of node 44 (blade 2, node 15), m
        132    1.474E+02                                 F               0         IfW Z-component position of node 44 (blade 2, node 15), m
        133    2.514E+01                                 F               0         IfW X-component position of node 45 (blade 2, node 16), m
        134    6.754E+01                                 F               0         IfW Y-component position of node 45 (blade 2, node 16), m
        135    1.473E+02                                 F               0         IfW Z-component position of node 45 (blade 2, node 16), m
        136    2.510E+01                                 F               0         IfW X-component position of node 46 (blade 2, node 17), m
        137    7.140E+01                                 F               0         IfW Y-component position of node 46 (blade 2, node 17), m
        138    1.472E+02                                 F               0         IfW Z-component position of node 46 (blade 2, node 17), m
        139    2.507E+01                                 F               0         IfW X-component position of node 47 (blade 2, node 18), m
        140    7.527E+01                                 F               0         IfW Y-component position of node 47 (blade 2, node 18), m
        141    1.471E+02                                 F               0         IfW Z-component position of node 47 (blade 2, node 18), m
        142    2.503E+01                                 F               0         IfW X-component position of node 48 (blade 2, node 19), m
        143    7.913E+01                                 F               0         IfW Y-component position of node 48 (blade 2, node 19), m
        144    1.470E+02                                 F               0         IfW Z-component position of node 48 (blade 2, node 19), m
        145    2.500E+01                                 F               0         IfW X-component position of node 49 (blade 2, node 20), m
        146    8.300E+01                                 F               0         IfW Y-component position of node 49 (blade 2, node 20), m
        147    1.469E+02                                 F               0         IfW Z-component position of node 49 (blade 2, node 20), m
        148    2.496E+01                                 F               0         IfW X-component position of node 50 (blade 2, node 21), m
        149    8.687E+01                                 F               0         IfW Y-component position of node 50 (blade 2, node 21), m
        150    1.468E+02                                 F               0         IfW Z-component position of node 50 (blade 2, node 21), m
        151    2.492E+01                                 F               0         IfW X-component position of node 51 (blade 2, node 22), m
        152    9.073E+01                                 F               0         IfW Y-component position of node 51 (blade 2, node 22), m
        153    1.467E+02                                 F               0         IfW Z-component position of node 51 (blade 2, node 22), m
        154    2.489E+01                                 F               0         IfW X-component position of node 52 (blade 2, node 23), m
        155    9.460E+01                                 F               0         IfW Y-component position of node 52 (blade 2, node 23), m