
Linearized model: Predictions were generated on 06-Feb-2024 at 16:18:08 using OpenFAST, compiled as a 64-bit application using single precision at commit v3.5.1
 linked with  NWTC Subroutine Library; ElastoDyn; InflowWind; AeroDyn; ServoDyn; HydroDyn; MAP++ (<1.20.10>, <Oct-20-2023>)

Description from the FAST input file: CCT-9 Campign 4 model. Input files to be run with OpenFAST 3.5.0. GitHub branch from Lu Wang (https://github.com/luwang00/openfast/tree/dev) compiled on March 7, 2023.

Simulation information:
   Simulation time:                  1005.9750 s
   Rotor Speed:                         1.0418 rad/s
   Azimuth:                             1.4430 rad
   Wind Speed:                         12.0000 m/s
   Number of continuous states:         0
   Number of discrete states:           0
   Number of constraint states:         0
   Number of inputs:                 1746
   Number of outputs:                   4
   Jacobians included in this file?    No

Order of inputs:
     Column   Operating Point                     Rotating Frame? Derivative Order Description
   ---------- ---------------                     --------------- ---------------- -----------
          1    1.513E+01                                 F               0         Tower X translation displacement, node 1, m
          2   -1.423E+00                                 F               0         Tower Y translation displacement, node 1, m
          3   -4.892E-01                                 F               0         Tower Z translation displacement, node 1, m
          4    1.704E+01                                 F               0         Tower X translation displacement, node 2, m
          5   -2.005E+00                                 F               0         Tower Y translation displacement, node 2, m
          6   -6.518E-01                                 F               0         Tower Z translation displacement, node 2, m
          7    1.899E+01                                 F               0         Tower X translation displacement, node 3, m
          8   -2.591E+00                                 F               0         Tower Y translation displacement, node 3, m
          9   -8.202E-01                                 F               0         Tower Z translation displacement, node 3, m
         10    2.096E+01                                 F               0         Tower X translation displacement, node 4, m
         11   -3.183E+00                                 F               0         Tower Y translation displacement, node 4, m
         12   -9.930E-01                                 F               0         Tower Z translation displacement, node 4, m
         13    2.296E+01                                 F               0         Tower X translation displacement, node 5, m
         14   -3.777E+00                                 F               0         Tower Y translation displacement, node 5, m
         15   -1.169E+00                                 F               0         Tower Z translation displacement, node 5, m
         16    2.497E+01                                 F               0         Tower X translation displacement, node 6, m
         17   -4.375E+00                                 F               0         Tower Y translation displacement, node 6, m
         18   -1.349E+00                                 F               0         Tower Z translation displacement, node 6, m
         19    2.699E+01                                 F               0         Tower X translation displacement, node 7, m
         20   -4.976E+00                                 F               0         Tower Y translation displacement, node 7, m
         21   -1.531E+00                                 F               0         Tower Z translation displacement, node 7, m
         22    2.903E+01                                 F               0         Tower X translation displacement, node 8, m
         23   -5.578E+00                                 F               0         Tower Y translation displacement, node 8, m
         24   -1.715E+00                                 F               0         Tower Z translation displacement, node 8, m
         25    3.108E+01                                 F               0         Tower X translation displacement, node 9, m
         26   -6.183E+00                                 F               0         Tower Y translation displacement, node 9, m
         27   -1.901E+00                                 F               0         Tower Z translation displacement, node 9, m
         28    3.313E+01                                 F               0         Tower X translation displacement, node 10, m
         29   -6.788E+00                                 F               0         Tower Y translation displacement, node 10, m
         30   -2.087E+00                                 F               0         Tower Z translation displacement, node 10, m
         31    3.518E+01                                 F               0         Tower X translation displacement, node 11, m
         32   -7.394E+00                                 F               0         Tower Y translation displacement, node 11, m
         33   -2.274E+00                                 F               0         Tower Z translation displacement, node 11, m
         34    9.881E-01, -3.534E-03, -1.540E-01         F               0         Tower X orientation angle, node 1, rad
         35    1.071E-02,  9.989E-01,  4.577E-02         F               0         Tower Y orientation angle, node 1, rad
         36    1.537E-01, -4.687E-02,  9.870E-01         F               0         Tower Z orientation angle, node 1, rad
         37    9.877E-01, -3.410E-03, -1.566E-01         F               0         Tower X orientation angle, node 2, rad
         38    1.077E-02,  9.989E-01,  4.617E-02         F               0         Tower Y orientation angle, node 2, rad
         39    1.562E-01, -4.729E-02,  9.866E-01         F               0         Tower Z orientation angle, node 2, rad
         40    9.873E-01, -3.300E-03, -1.589E-01         F               0         Tower X orientation angle, node 3, rad
         41    1.083E-02,  9.989E-01,  4.653E-02         F               0         Tower Y orientation angle, node 3, rad
         42    1.585E-01, -4.766E-02,  9.862E-01         F               0         Tower Z orientation angle, node 3, rad
         43    9.870E-01, -3.205E-03, -1.608E-01         F               0         Tower X orientation angle, node 4, rad
         44    1.088E-02,  9.988E-01,  4.685E-02         F               0         Tower Y orientation angle, node 4, rad
         45    1.605E-01, -4.799E-02,  9.859E-01         F               0         Tower Z orientation angle, node 4, rad
         46    9.867E-01, -3.125E-03, -1.625E-01         F               0         Tower X orientation angle, node 5, rad
         47    1.092E-02,  9.988E-01,  4.712E-02         F               0         Tower Y orientation angle, node 5, rad
         48    1.621E-01, -4.827E-02,  9.856E-01         F               0         Tower Z orientation angle, node 5, rad
         49    9.865E-01, -3.060E-03, -1.638E-01         F               0         Tower X orientation angle, node 6, rad
         50    1.096E-02,  9.988E-01,  4.735E-02         F               0         Tower Y orientation angle, node 6, rad
         51    1.635E-01, -4.851E-02,  9.854E-01         F               0         Tower Z orientation angle, node 6, rad
         52    9.863E-01, -3.009E-03, -1.648E-01         F               0         Tower X orientation angle, node 7, rad
         53    1.099E-02,  9.988E-01,  4.753E-02         F               0         Tower Y orientation angle, node 7, rad
         54    1.645E-01, -4.869E-02,  9.852E-01         F               0         Tower Z orientation angle, node 7, rad
         55    9.862E-01, -2.971E-03, -1.656E-01         F               0         Tower X orientation angle, node 8, rad
         56    1.101E-02,  9.988E-01,  4.767E-02         F               0         Tower Y orientation angle, node 8, rad
         57    1.652E-01, -4.884E-02,  9.850E-01         F               0         Tower Z orientation angle, node 8, rad
         58    9.861E-01, -2.944E-03, -1.661E-01         F               0         Tower X orientation angle, node 9, rad
         59    1.103E-02,  9.988E-01,  4.778E-02         F               0         Tower Y orientation angle, node 9, rad
         60    1.658E-01, -4.895E-02,  9.849E-01         F               0         Tower Z orientation angle, node 9, rad
         61    9.860E-01, -2.928E-03, -1.665E-01         F               0         Tower X orientation angle, node 10, rad
         62    1.104E-02,  9.988E-01,  4.784E-02         F               0         Tower Y orientation angle, node 10, rad
         63    1.661E-01, -4.902E-02,  9.849E-01         F               0         Tower Z orientation angle, node 10, rad
         64    9.860E-01, -2.919E-03, -1.666E-01         F               0         Tower X orientation angle, node 11, rad
         65    1.105E-02,  9.988E-01,  4.788E-02         F               0         Tower Y orientation angle, node 11, rad
         66    1.663E-01, -4.905E-02,  9.849E-01         F               0         Tower Z orientation angle, node 11, rad
         67    4.741E-04                                 F               0         Tower X translation velocity, node 1, m/s
         68    7.408E-04                                 F               0         Tower Y translation velocity, node 1, m/s
         69    4.363E-03                                 F               0         Tower Z translation velocity, node 1, m/s
         70    6.108E-04                                 F               0         Tower X translation velocity, node 2, m/s
         71    1.222E-03                                 F               0         Tower Y translation velocity, node 2, m/s
         72    4.364E-03                                 F               0         Tower Z translation velocity, node 2, m/s
         73    7.171E-04                                 F               0         Tower X translation velocity, node 3, m/s
         74    1.655E-03                                 F               0         Tower Y translation velocity, node 3, m/s
         75    4.368E-03                                 F               0         Tower Z translation velocity, node 3, m/s
         76    8.011E-04                                 F               0         Tower X translation velocity, node 4, m/s
         77    2.049E-03                                 F               0         Tower Y translation velocity, node 4, m/s
         78    4.374E-03                                 F               0         Tower Z translation velocity, node 4, m/s
         79    8.677E-04                                 F               0         Tower X translation velocity, node 5, m/s
         80    2.405E-03                                 F               0         Tower Y translation velocity, node 5, m/s
         81    4.380E-03                                 F               0         Tower Z translation velocity, node 5, m/s
         82    9.213E-04                                 F               0         Tower X translation velocity, node 6, m/s
         83    2.728E-03                                 F               0         Tower Y translation velocity, node 6, m/s
         84    4.387E-03                                 F               0         Tower Z translation velocity, node 6, m/s
         85    9.663E-04                                 F               0         Tower X translation velocity, node 7, m/s
         86    3.023E-03                                 F               0         Tower Y translation velocity, node 7, m/s
         87    4.394E-03                                 F               0         Tower Z translation velocity, node 7, m/s
         88    1.005E-03                                 F               0         Tower X translation velocity, node 8, m/s
         89    3.292E-03                                 F               0         Tower Y translation velocity, node 8, m/s
         90    4.401E-03                                 F               0         Tower Z translation velocity, node 8, m/s
         91    1.040E-03                                 F               0         Tower X translation velocity, node 9, m/s
         92    3.540E-03                                 F               0         Tower Y translation velocity, node 9, m/s
         93    4.407E-03                                 F               0         Tower Z translation velocity, node 9, m/s
         94    1.073E-03                                 F               0         Tower X translation velocity, node 10, m/s
         95    3.772E-03                                 F               0         Tower Y translation velocity, node 10, m/s
         96    4.413E-03                                 F               0         Tower Z translation velocity, node 10, m/s
         97    1.105E-03                                 F               0         Tower X translation velocity, node 11, m/s
         98    3.995E-03                                 F               0         Tower Y translation velocity, node 11, m/s
         99    4.419E-03                                 F               0         Tower Z translation velocity, node 11, m/s
        100    3.664E+01                                 F               0         Hub X translation displacement, node 1, m
        101   -7.747E+00                                 F               0         Hub Y translation displacement, node 1, m
        102   -5.932E-01                                 F               0         Hub Z translation displacement, node 1, m
        103    9.632E-01,  2.225E-03, -2.687E-01         F               0         Hub X orientation angle, node 1, rad
        104    2.677E-01,  7.858E-02,  9.603E-01         F               0         Hub Y orientation angle, node 1, rad
        105    2.325E-02, -9.969E-01,  7.510E-02         F               0         Hub Z orientation angle, node 1, rad
        106    1.004E+00                                 F               0         Hub X rotation velocity, node 1, rad/s
        107    2.321E-03                                 F               0         Hub Y rotation velocity, node 1, rad/s
        108   -2.799E-01                                 F               0         Hub Z rotation velocity, node 1, rad/s
        109    9.549E-01, -1.074E-04, -2.970E-01         F               0         Blade root 1 X orientation angle, node 1, rad
        110    2.961E-01,  7.862E-02,  9.519E-01         F               0         Blade root 1 Y orientation angle, node 1, rad
        111    2.325E-02, -9.969E-01,  7.510E-02         F               0         Blade root 1 Z orientation angle, node 1, rad
        112    9.662E-01,  2.900E-02, -2.562E-01         F               0         Blade root 2 X orientation angle, node 1, rad
        113   -8.508E-02, -9.022E-01, -4.229E-01         F               0         Blade root 2 Y orientation angle, node 1, rad
        114   -2.434E-01,  4.304E-01, -8.692E-01         F               0         Blade root 2 Z orientation angle, node 1, rad
        115    9.674E-01, -2.222E-02, -2.524E-01         F               0         Blade root 3 X orientation angle, node 1, rad
        116   -1.253E-01,  8.238E-01, -5.529E-01         F               0         Blade root 3 Y orientation angle, node 1, rad
        117    2.202E-01,  5.665E-01,  7.941E-01         F               0         Blade root 3 Z orientation angle, node 1, rad
        118    3.619E+01                                 F               0         Blade 1 X translation displacement, node 1, m
        119   -1.327E+01                                 F               0         Blade 1 Y translation displacement, node 1, m
        120   -5.687E+00                                 F               0         Blade 1 Z translation displacement, node 1, m
        121    3.608E+01                                 F               0         Blade 1 X translation displacement, node 2, m
        122   -1.460E+01                                 F               0         Blade 1 Y translation displacement, node 2, m
        123   -6.914E+00                                 F               0         Blade 1 Z translation displacement, node 2, m
        124    3.460E+01                                 F               0         Blade 1 X translation displacement, node 3, m
        125   -3.270E+01                                 F               0         Blade 1 Y translation displacement, node 3, m
        126   -2.360E+01                                 F               0         Blade 1 Z translation displacement, node 3, m
        127    3.429E+01                                 F               0         Blade 1 X translation displacement, node 4, m
        128   -3.655E+01                                 F               0         Blade 1 Y translation displacement, node 4, m
        129   -2.716E+01                                 F               0         Blade 1 Z translation displacement, node 4, m
        130    3.397E+01                                 F               0         Blade 1 X translation displacement, node 5, m
        131   -4.041E+01                                 F               0         Blade 1 Y translation displacement, node 5, m
        132   -3.072E+01                                 F               0         Blade 1 Z translation displacement, node 5, m
        133    3.366E+01                                 F               0         Blade 1 X translation displacement, node 6, m
        134   -4.426E+01                                 F               0         Blade 1 Y translation displacement, node 6, m
        135   -3.427E+01                                 F               0         Blade 1 Z translation displacement, node 6, m
        136    3.335E+01                                 F               0         Blade 1 X translation displacement, node 7, m
        137   -4.812E+01                                 F               0         Blade 1 Y translation displacement, node 7, m
        138   -3.783E+01                                 F               0         Blade 1 Z translation displacement, node 7, m
        139    3.303E+01                                 F               0         Blade 1 X translation displacement, node 8, m
        140   -5.198E+01                                 F               0         Blade 1 Y translation displacement, node 8, m
        141   -4.138E+01                                 F               0         Blade 1 Z translation displacement, node 8, m
        142    3.272E+01                                 F               0         Blade 1 X translation displacement, node 9, m
        143   -5.583E+01                                 F               0         Blade 1 Y translation displacement, node 9, m
        144   -4.494E+01                                 F               0         Blade 1 Z translation displacement, node 9, m
        145    3.240E+01                                 F               0         Blade 1 X translation displacement, node 10, m
        146   -5.969E+01                                 F               0         Blade 1 Y translation displacement, node 10, m
        147   -4.850E+01                                 F               0         Blade 1 Z translation displacement, node 10, m
        148    3.209E+01                                 F               0         Blade 1 X translation displacement, node 11, m
        149   -6.354E+01                                 F               0         Blade 1 Y translation displacement, node 11, m
        150   -5.205E+01                                 F               0         Blade 1 Z translation displacement, node 11, m
        151    3.177E+01                                 F               0         Blade 1 X translation displacement, node 12, m
        152   -6.740E+01                                 F               0         Blade 1 Y translation displacement, node 12, m
        153   -5.561E+01                                 F               0         Blade 1 Z translation displacement, node 12, m
        154    3.146E+01                                 F               0         Blade 1 X translation displacement, node 13, m
        155   -7.125E+01                                 F               0         Blade 1 Y translation displacement, node 13, m
        156   -5.916E+01                                 F               0         Blade 1 Z translation displacement, node 13, m
        157    3.115E+01                                 F               0         Blade 1 X translation displacement, node 14, m
        158   -7.511E+01                                 F               0         Blade 1 Y translation displacement, node 14, m
        159   -6.272E+01                                 F               0         Blade 1 Z translation displacement, node 14, m
        160    3.083E+01                                 F               0         Blade 1 X translation displacement, node 15, m
        161   -7.897E+01                                 F               0         Blade 1 Y translation displacement, node 15, m
        162   -6.628E+01                                 F               0         Blade 1 Z translation displacement, node 15, m
        163    3.052E+01                                 F               0         Blade 1 X translation displacement, node 16, m
        164   -8.282E+01                                 F               0         Blade 1 Y translation displacement, node 16, m
        165   -6.983E+01                                 F               0         Blade 1 Z translation displacement, node 16, m
        166    3.020E+01                                 F               0         Blade 1 X translation displacement, node 17, m
        167   -8.668E+01                                 F               0         Blade 1 Y translation displacement, node 17, m
        168   -7.339E+01                                 F               0         Blade 1 Z translation displacement, node 17, m
        169    2.989E+01                                 F               0         Blade 1 X translation displacement, node 18, m
        170   -9.053E+01                                 F               0         Blade 1 Y translation displacement, node 18, m
        171   -7.694E+01                                 F               0         Blade 1 Z translation displacement, node 18, m
        172    2.957E+01                                 F               0         Blade 1 X translation displacement, node 19, m
        173   -9.439E+01                                 F               0         Blade 1 Y translation displacement, node 19, m
        174   -8.050E+01                                 F               0         Blade 1 Z translation displacement, node 19, m
        175    2.926E+01                                 F               0         Blade 1 X translation displacement, node 20, m
        176   -9.824E+01                                 F               0         Blade 1 Y translation displacement, node 20, m
        177   -8.406E+01                                 F               0         Blade 1 Z translation displacement, node 20, m
        178    2.894E+01                                 F               0         Blade 1 X translation displacement, node 21, m
        179   -1.021E+02                                 F               0         Blade 1 Y translation displacement, node 21, m
        180   -8.761E+01                                 F               0         Blade 1 Z translation displacement, node 21, m
        181    2.863E+01                                 F               0         Blade 1 X translation displacement, node 22, m
        182   -1.060E+02                                 F               0         Blade 1 Y translation displacement, node 22, m
        183   -9.117E+01                                 F               0         Blade 1 Z translation displacement, node 22, m
        184    2.832E+01                                 F               0         Blade 1 X translation displacement, node 23, m
        185   -1.098E+02                                 F               0         Blade 1 Y translation displacement, node 23, m
        186   -9.473E+01                                 F               0         Blade 1 Z translation displacement, node 23, m
        187    2.800E+01                                 F               0         Blade 1 X translation displacement, node 24, m
        188   -1.137E+02                                 F               0         Blade 1 Y translation displacement, node 24, m
        189   -9.828E+01                                 F               0         Blade 1 Z translation displacement, node 24, m
        190    2.769E+01                                 F               0         Blade 1 X translation displacement, node 25, m
        191   -1.175E+02                                 F               0         Blade 1 Y translation displacement, node 25, m
        192   -1.018E+02                                 F               0         Blade 1 Z translation displacement, node 25, m
        193    2.737E+01                                 F               0         Blade 1 X translation displacement, node 26, m
        194   -1.214E+02                                 F               0         Blade 1 Y translation displacement, node 26, m
        195   -1.054E+02                                 F               0         Blade 1 Z translation displacement, node 26, m
        196    2.706E+01                                 F               0         Blade 1 X translation displacement, node 27, m
        197   -1.252E+02                                 F               0         Blade 1 Y translation displacement, node 27, m
        198   -1.089E+02                                 F               0         Blade 1 Z translation displacement, node 27, m
        199    2.679E+01                                 F               0         Blade 1 X translation displacement, node 28, m
        200   -1.285E+02                                 F               0         Blade 1 Y translation displacement, node 28, m
        201   -1.120E+02                                 F               0         Blade 1 Z translation displacement, node 28, m
        202    7.148E-01, -3.595E-02, -6.984E-01         F               0         Blade 1 X orientation angle, node 1, rad
        203    6.990E-01,  6.992E-02,  7.117E-01         F               0         Blade 1 Y orientation angle, node 1, rad
        204    2.325E-02, -9.969E-01,  7.510E-02         F               0         Blade 1 Z orientation angle, node 1, rad
        205    7.148E-01, -3.595E-02, -6.984E-01         F               0         Blade 1 X orientation angle, node 2, rad
        206    6.990E-01,  6.992E-02,  7.117E-01         F               0         Blade 1 Y orientation angle, node 2, rad
        207    2.325E-02, -9.969E-01,  7.510E-02         F               0         Blade 1 Z orientation angle, node 2, rad
        208    8.601E-01, -1.835E-02, -5.099E-01         F               0         Blade 1 X orientation angle, node 3, rad
        209    5.097E-01,  7.644E-02,  8.570E-01         F               0         Blade 1 Y orientation angle, node 3, rad
        210    2.325E-02, -9.969E-01,  7.510E-02         F               0         Blade 1 Z orientation angle, node 3, rad
        211    8.808E-01, -1.511E-02, -4.732E-01         F               0         Blade 1 X orientation angle, node 4, rad
        212    4.729E-01,  7.715E-02,  8.777E-01         F               0         Blade 1 Y orientation angle, node 4, rad
        213    2.325E-02, -9.969E-01,  7.510E-02         F               0         Blade 1 Z orientation angle, node 4, rad
        214    8.960E-01, -1.254E-02, -4.439E-01         F               0         Blade 1 X orientation angle, node 5, rad
        215    4.434E-01,  7.761E-02,  8.929E-01         F               0         Blade 1 Y orientation angle, node 5, rad
        216    2.325E-02, -9.969E-01,  7.510E-02         F               0         Blade 1 Z orientation angle, node 5, rad
        217    9.075E-01, -1.048E-02, -4.200E-01         F               0         Blade 1 X orientation angle, node 6, rad
        218    4.195E-01,  7.791E-02,  9.044E-01         F               0         Blade 1 Y orientation angle, node 6, rad
        219    2.325E-02, -9.969E-01,  7.510E-02         F               0         Blade 1 Z orientation angle, node 6, rad
        220    9.164E-01, -8.775E-03, -4.002E-01         F               0         Blade 1 X orientation angle, node 7, rad
        221    3.996E-01,  7.812E-02,  9.134E-01         F               0         Blade 1 Y orientation angle, node 7, rad
        222    2.325E-02, -9.969E-01,  7.510E-02         F               0         Blade 1 Z orientation angle, node 7, rad
        223    9.235E-01, -7.355E-03, -3.835E-01         F               0         Blade 1 X orientation angle, node 8, rad
        224    3.829E-01,  7.827E-02,  9.205E-01         F               0         Blade 1 Y orientation angle, node 8, rad
        225    2.325E-02, -9.969E-01,  7.510E-02         F               0         Blade 1 Z orientation angle, node 8, rad
        226    9.293E-01, -6.152E-03, -3.694E-01         F               0         Blade 1 X orientation angle, node 9, rad
        227    3.687E-01,  7.837E-02,  9.262E-01         F               0         Blade 1 Y orientation angle, node 9, rad