
Linearized model: Predictions were generated on 06-Feb-2024 at 16:18:08 using OpenFAST, compiled as a 64-bit application using single precision at commit v3.5.1
 linked with  NWTC Subroutine Library; ElastoDyn; InflowWind; AeroDyn; ServoDyn; HydroDyn; MAP++ (<1.20.10>, <Oct-20-2023>)

Description from the FAST input file: CCT-9 Campign 4 model. Input files to be run with OpenFAST 3.5.0. GitHub branch from Lu Wang (https://github.com/luwang00/openfast/tree/dev) compiled on March 7, 2023.

Simulation information:
   Simulation time:                  1008.4500 s
   Rotor Speed:                         1.0421 rad/s
   Azimuth:                             4.0219 rad
   Wind Speed:                         12.0000 m/s
   Number of continuous states:        18
   Number of discrete states:           0
   Number of constraint states:         0
   Number of inputs:                 3988
   Number of outputs:                  36
   Jacobians included in this file?    No

Order of continuous states:
   Row/Column Operating Point                     Rotating Frame? Derivative Order Description
   ---------- ---------------                     --------------- ---------------- -----------
          1    1.231E+01                                 F               2         ED Platform horizontal surge translation DOF (internal DOF index = DOF_Sg), m
          2   -2.387E-01                                 F               2         ED Platform vertical heave translation DOF (internal DOF index = DOF_Hv), m
          3    4.694E-02                                 F               2         ED Platform roll tilt rotation DOF (internal DOF index = DOF_R), rad
          4    1.559E-01                                 F               2         ED Platform pitch tilt rotation DOF (internal DOF index = DOF_P), rad
          5    1.079E+00                                 F               2         ED 1st tower fore-aft bending mode DOF (internal DOF index = DOF_TFA1), m
          6    1.761E-01                                 F               2         ED 1st tower side-to-side bending mode DOF (internal DOF index = DOF_TSS1), m
          7    1.611E-03                                 F               2         ED 2nd tower fore-aft bending mode DOF (internal DOF index = DOF_TFA2), m
          8    7.714E-05                                 F               2         ED 2nd tower side-to-side bending mode DOF (internal DOF index = DOF_TSS2), m
          9    2.451E+00                                 F               2         ED Variable speed generator DOF (internal DOF index = DOF_GeAz), rad
         10    4.499E-05                                 F               2         ED First time derivative of Platform horizontal surge translation DOF (internal DOF index = DOF_Sg), m/s
         11    4.820E-03                                 F               2         ED First time derivative of Platform vertical heave translation DOF (internal DOF index = DOF_Hv), m/s
         12    4.579E-05                                 F               2         ED First time derivative of Platform roll tilt rotation DOF (internal DOF index = DOF_R), rad/s
         13    2.003E-06                                 F               2         ED First time derivative of Platform pitch tilt rotation DOF (internal DOF index = DOF_P), rad/s
         14    1.640E-03                                 F               2         ED First time derivative of 1st tower fore-aft bending mode DOF (internal DOF index = DOF_TFA1), m/s
         15   -2.152E-03                                 F               2         ED First time derivative of 1st tower side-to-side bending mode DOF (internal DOF index = DOF_TSS1), m/s
         16    9.105E-06                                 F               2         ED First time derivative of 2nd tower fore-aft bending mode DOF (internal DOF index = DOF_TFA2), m/s
         17    1.046E-06                                 F               2         ED First time derivative of 2nd tower side-to-side bending mode DOF (internal DOF index = DOF_TSS2), m/s
         18    1.042E+00                                 F               2         ED First time derivative of Variable speed generator DOF (internal DOF index = DOF_GeAz), rad/s

Order of continuous state derivatives:
   Row/Column Operating Point                     Rotating Frame? Derivative Order Description
   ---------- ---------------                     --------------- ---------------- -----------
          1    4.499E-05                                 F               2         First time derivative of ED Platform horizontal surge translation DOF (internal DOF index = DOF_Sg), m/s
          2    4.820E-03                                 F               2         First time derivative of ED Platform vertical heave translation DOF (internal DOF index = DOF_Hv), m/s
          3    4.579E-05                                 F               2         First time derivative of ED Platform roll tilt rotation DOF (internal DOF index = DOF_R), rad/s
          4    2.003E-06                                 F               2         First time derivative of ED Platform pitch tilt rotation DOF (internal DOF index = DOF_P), rad/s
          5    1.640E-03                                 F               2         First time derivative of ED 1st tower fore-aft bending mode DOF (internal DOF index = DOF_TFA1), m/s
          6   -2.152E-03                                 F               2         First time derivative of ED 1st tower side-to-side bending mode DOF (internal DOF index = DOF_TSS1), m/s
          7    9.105E-06                                 F               2         First time derivative of ED 2nd tower fore-aft bending mode DOF (internal DOF index = DOF_TFA2), m/s
          8    1.046E-06                                 F               2         First time derivative of ED 2nd tower side-to-side bending mode DOF (internal DOF index = DOF_TSS2), m/s
          9    1.042E+00                                 F               2         First time derivative of ED Variable speed generator DOF (internal DOF index = DOF_GeAz), rad/s
         10   -3.896E-04                                 F               2         First time derivative of ED First time derivative of Platform horizontal surge translation DOF (internal DOF index = DOF_Sg), m/s/s
         11   -6.838E-04                                 F               2         First time derivative of ED First time derivative of Platform vertical heave translation DOF (internal DOF index = DOF_Hv), m/s/s
         12    1.016E-05                                 F               2         First time derivative of ED First time derivative of Platform roll tilt rotation DOF (internal DOF index = DOF_R), rad/s/s
         13   -2.059E-05                                 F               2         First time derivative of ED First time derivative of Platform pitch tilt rotation DOF (internal DOF index = DOF_P), rad/s/s
         14    3.357E-03                                 F               2         First time derivative of ED First time derivative of 1st tower fore-aft bending mode DOF (internal DOF index = DOF_TFA1), m/s/s
         15    3.423E-05                                 F               2         First time derivative of ED First time derivative of 1st tower side-to-side bending mode DOF (internal DOF index = DOF_TSS1), m/s/s
         16    1.206E-05                                 F               2         First time derivative of ED First time derivative of 2nd tower fore-aft bending mode DOF (internal DOF index = DOF_TFA2), m/s/s
         17    6.427E-06                                 F               2         First time derivative of ED First time derivative of 2nd tower side-to-side bending mode DOF (internal DOF index = DOF_TSS2), m/s/s
         18    4.275E-06                                 F               2         First time derivative of ED First time derivative of Variable speed generator DOF (internal DOF index = DOF_GeAz), rad/s/s

Order of inputs:
     Column   Operating Point                     Rotating Frame? Derivative Order Description
   ---------- ---------------                     --------------- ---------------- -----------
          1   -1.080E+01                                 F               0         IfW X-component position of node 1 (hub), m
          2    0.000E+00                                 F               0         IfW Y-component position of node 1 (hub), m
          3    1.497E+02                                 F               0         IfW Z-component position of node 1 (hub), m
          4    2.494E+01                                 F               0         IfW X-component position of node 2 (blade 1, node 1), m
          5   -3.309E+00                                 F               0         IfW Y-component position of node 2 (blade 1, node 1), m
          6    1.460E+02                                 F               0         IfW Z-component position of node 2 (blade 1, node 1), m
          7    2.472E+01                                 F               0         IfW X-component position of node 3 (blade 1, node 2), m
          8   -2.239E+00                                 F               0         IfW Y-component position of node 3 (blade 1, node 2), m
          9    1.452E+02                                 F               0         IfW Z-component position of node 3 (blade 1, node 2), m
         10    2.178E+01                                 F               0         IfW X-component position of node 4 (blade 1, node 3), m
         11    1.231E+01                                 F               0         IfW Y-component position of node 4 (blade 1, node 3), m
         12    1.347E+02                                 F               0         IfW Z-component position of node 4 (blade 1, node 3), m
         13    2.115E+01                                 F               0         IfW X-component position of node 5 (blade 1, node 4), m
         14    1.541E+01                                 F               0         IfW Y-component position of node 5 (blade 1, node 4), m
         15    1.325E+02                                 F               0         IfW Z-component position of node 5 (blade 1, node 4), m
         16    2.052E+01                                 F               0         IfW X-component position of node 6 (blade 1, node 5), m
         17    1.850E+01                                 F               0         IfW Y-component position of node 6 (blade 1, node 5), m
         18    1.303E+02                                 F               0         IfW Z-component position of node 6 (blade 1, node 5), m
         19    1.989E+01                                 F               0         IfW X-component position of node 7 (blade 1, node 6), m
         20    2.160E+01                                 F               0         IfW Y-component position of node 7 (blade 1, node 6), m
         21    1.281E+02                                 F               0         IfW Z-component position of node 7 (blade 1, node 6), m
         22    1.926E+01                                 F               0         IfW X-component position of node 8 (blade 1, node 7), m
         23    2.470E+01                                 F               0         IfW Y-component position of node 8 (blade 1, node 7), m
         24    1.258E+02                                 F               0         IfW Z-component position of node 8 (blade 1, node 7), m
         25    1.863E+01                                 F               0         IfW X-component position of node 9 (blade 1, node 8), m
         26    2.780E+01                                 F               0         IfW Y-component position of node 9 (blade 1, node 8), m
         27    1.236E+02                                 F               0         IfW Z-component position of node 9 (blade 1, node 8), m
         28    1.801E+01                                 F               0         IfW X-component position of node 10 (blade 1, node 9), m
         29    3.090E+01                                 F               0         IfW Y-component position of node 10 (blade 1, node 9), m
         30    1.214E+02                                 F               0         IfW Z-component position of node 10 (blade 1, node 9), m
         31    1.738E+01                                 F               0         IfW X-component position of node 11 (blade 1, node 10), m
         32    3.400E+01                                 F               0         IfW Y-component position of node 11 (blade 1, node 10), m
         33    1.192E+02                                 F               0         IfW Z-component position of node 11 (blade 1, node 10), m
         34    1.675E+01                                 F               0         IfW X-component position of node 12 (blade 1, node 11), m
         35    3.710E+01                                 F               0         IfW Y-component position of node 12 (blade 1, node 11), m
         36    1.169E+02                                 F               0         IfW Z-component position of node 12 (blade 1, node 11), m
         37    1.612E+01                                 F               0         IfW X-component position of node 13 (blade 1, node 12), m
         38    4.020E+01                                 F               0         IfW Y-component position of node 13 (blade 1, node 12), m
         39    1.147E+02                                 F               0         IfW Z-component position of node 13 (blade 1, node 12), m
         40    1.549E+01                                 F               0         IfW X-component position of node 14 (blade 1, node 13), m
         41    4.330E+01                                 F               0         IfW Y-component position of node 14 (blade 1, node 13), m
         42    1.125E+02                                 F               0         IfW Z-component position of node 14 (blade 1, node 13), m
         43    1.486E+01                                 F               0         IfW X-component position of node 15 (blade 1, node 14), m
         44    4.640E+01                                 F               0         IfW Y-component position of node 15 (blade 1, node 14), m
         45    1.103E+02                                 F               0         IfW Z-component position of node 15 (blade 1, node 14), m
         46    1.423E+01                                 F               0         IfW X-component position of node 16 (blade 1, node 15), m
         47    4.950E+01                                 F               0         IfW Y-component position of node 16 (blade 1, node 15), m
         48    1.080E+02                                 F               0         IfW Z-component position of node 16 (blade 1, node 15), m
         49    1.361E+01                                 F               0         IfW X-component position of node 17 (blade 1, node 16), m
         50    5.260E+01                                 F               0         IfW Y-component position of node 17 (blade 1, node 16), m
         51    1.058E+02                                 F               0         IfW Z-component position of node 17 (blade 1, node 16), m
         52    1.298E+01                                 F               0         IfW X-component position of node 18 (blade 1, node 17), m
         53    5.569E+01                                 F               0         IfW Y-component position of node 18 (blade 1, node 17), m
         54    1.036E+02                                 F               0         IfW Z-component position of node 18 (blade 1, node 17), m
         55    1.235E+01                                 F               0         IfW X-component position of node 19 (blade 1, node 18), m
         56    5.879E+01                                 F               0         IfW Y-component position of node 19 (blade 1, node 18), m
         57    1.013E+02                                 F               0         IfW Z-component position of node 19 (blade 1, node 18), m
         58    1.172E+01                                 F               0         IfW X-component position of node 20 (blade 1, node 19), m
         59    6.189E+01                                 F               0         IfW Y-component position of node 20 (blade 1, node 19), m
         60    9.912E+01                                 F               0         IfW Z-component position of node 20 (blade 1, node 19), m
         61    1.109E+01                                 F               0         IfW X-component position of node 21 (blade 1, node 20), m
         62    6.499E+01                                 F               0         IfW Y-component position of node 21 (blade 1, node 20), m
         63    9.689E+01                                 F               0         IfW Z-component position of node 21 (blade 1, node 20), m
         64    1.046E+01                                 F               0         IfW X-component position of node 22 (blade 1, node 21), m
         65    6.809E+01                                 F               0         IfW Y-component position of node 22 (blade 1, node 21), m
         66    9.466E+01                                 F               0         IfW Z-component position of node 22 (blade 1, node 21), m
         67    9.836E+00                                 F               0         IfW X-component position of node 23 (blade 1, node 22), m
         68    7.119E+01                                 F               0         IfW Y-component position of node 23 (blade 1, node 22), m
         69    9.244E+01                                 F               0         IfW Z-component position of node 23 (blade 1, node 22), m
         70    9.208E+00                                 F               0         IfW X-component position of node 24 (blade 1, node 23), m
         71    7.429E+01                                 F               0         IfW Y-component position of node 24 (blade 1, node 23), m
         72    9.021E+01                                 F               0         IfW Z-component position of node 24 (blade 1, node 23), m
         73    8.580E+00                                 F               0         IfW X-component position of node 25 (blade 1, node 24), m
         74    7.739E+01                                 F               0         IfW Y-component position of node 25 (blade 1, node 24), m
         75    8.798E+01                                 F               0         IfW Z-component position of node 25 (blade 1, node 24), m
         76    7.951E+00                                 F               0         IfW X-component position of node 26 (blade 1, node 25), m
         77    8.049E+01                                 F               0         IfW Y-component position of node 26 (blade 1, node 25), m
         78    8.576E+01                                 F               0         IfW Z-component position of node 26 (blade 1, node 25), m
         79    7.323E+00                                 F               0         IfW X-component position of node 27 (blade 1, node 26), m
         80    8.359E+01                                 F               0         IfW Y-component position of node 27 (blade 1, node 26), m
         81    8.353E+01                                 F               0         IfW Z-component position of node 27 (blade 1, node 26), m
         82    6.695E+00                                 F               0         IfW X-component position of node 28 (blade 1, node 27), m
         83    8.669E+01                                 F               0         IfW Y-component position of node 28 (blade 1, node 27), m
         84    8.130E+01                                 F               0         IfW Z-component position of node 28 (blade 1, node 27), m
         85    6.162E+00                                 F               0         IfW X-component position of node 29 (blade 1, node 28), m
         86    8.931E+01                                 F               0         IfW Y-component position of node 29 (blade 1, node 28), m
         87    7.941E+01                                 F               0         IfW Z-component position of node 29 (blade 1, node 28), m
         88    2.732E+01                                 F               0         IfW X-component position of node 30 (blade 2, node 1), m
         89   -7.098E+00                                 F               0         IfW Y-component position of node 30 (blade 2, node 1), m
         90    1.545E+02                                 F               0         IfW Z-component position of node 30 (blade 2, node 1), m
         91    2.767E+01                                 F               0         IfW X-component position of node 31 (blade 2, node 2), m
         92   -6.941E+00                                 F               0         IfW Y-component position of node 31 (blade 2, node 2), m
         93    1.557E+02                                 F               0         IfW Z-component position of node 31 (blade 2, node 2), m
         94    3.251E+01                                 F               0         IfW X-component position of node 32 (blade 2, node 3), m
         95   -4.809E+00                                 F               0         IfW Y-component position of node 32 (blade 2, node 3), m
         96    1.731E+02                                 F               0         IfW Z-component position of node 32 (blade 2, node 3), m
         97    3.354E+01                                 F               0         IfW X-component position of node 33 (blade 2, node 4), m
         98   -4.354E+00                                 F               0         IfW Y-component position of node 33 (blade 2, node 4), m
         99    1.768E+02                                 F               0         IfW Z-component position of node 33 (blade 2, node 4), m
        100    3.458E+01                                 F               0         IfW X-component position of node 34 (blade 2, node 5), m
        101   -3.900E+00                                 F               0         IfW Y-component position of node 34 (blade 2, node 5), m
        102    1.805E+02                                 F               0         IfW Z-component position of node 34 (blade 2, node 5), m
        103    3.561E+01                                 F               0         IfW X-component position of node 35 (blade 2, node 6), m
        104   -3.446E+00                                 F               0         IfW Y-component position of node 35 (blade 2, node 6), m
        105    1.842E+02                                 F               0         IfW Z-component position of node 35 (blade 2, node 6), m
        106    3.664E+01                                 F               0         IfW X-component position of node 36 (blade 2, node 7), m
        107   -2.991E+00                                 F               0         IfW Y-component position of node 36 (blade 2, node 7), m
        108    1.879E+02                                 F               0         IfW Z-component position of node 36 (blade 2, node 7), m
        109    3.767E+01                                 F               0         IfW X-component position of node 37 (blade 2, node 8), m
        110   -2.537E+00                                 F               0         IfW Y-component position of node 37 (blade 2, node 8), m
        111    1.916E+02                                 F               0         IfW Z-component position of node 37 (blade 2, node 8), m
        112    3.870E+01                                 F               0         IfW X-component position of node 38 (blade 2, node 9), m
        113   -2.083E+00                                 F               0         IfW Y-component position of node 38 (blade 2, node 9), m
        114    1.953E+02                                 F               0         IfW Z-component position of node 38 (blade 2, node 9), m
        115    3.973E+01                                 F               0         IfW X-component position of node 39 (blade 2, node 10), m
        116   -1.629E+00                                 F               0         IfW Y-component position of node 39 (blade 2, node 10), m
        117    1.990E+02                                 F               0         IfW Z-component position of node 39 (blade 2, node 10), m
        118    4.076E+01                                 F               0         IfW X-component position of node 40 (blade 2, node 11), m
        119   -1.174E+00                                 F               0         IfW Y-component position of node 40 (blade 2, node 11), m
        120    2.027E+02                                 F               0         IfW Z-component position of node 40 (blade 2, node 11), m
        121    4.179E+01                                 F               0         IfW X-component position of node 41 (blade 2, node 12), m
        122   -7.200E-01                                 F               0         IfW Y-component position of node 41 (blade 2, node 12), m
        123    2.064E+02                                 F               0         IfW Z-component position of node 41 (blade 2, node 12), m
        124    4.282E+01                                 F               0         IfW X-component position of node 42 (blade 2, node 13), m
        125   -2.657E-01                                 F               0         IfW Y-component position of node 42 (blade 2, node 13), m
        126    2.101E+02                                 F               0         IfW Z-component position of node 42 (blade 2, node 13), m
        127    4.385E+01                                 F               0         IfW X-component position of node 43 (blade 2, node 14), m
        128    1.885E-01                                 F               0         IfW Y-component position of node 43 (blade 2, node 14), m
        129    2.138E+02                                 F               0         IfW Z-component position of node 43 (blade 2, node 14), m
        130    4.489E+01                                 F               0         IfW X-component position of node 44 (blade 2, node 15), m
        131    6.429E-01                                 F               0         IfW Y-component position of node 44 (blade 2, node 15), m
        132    2.175E+02                                 F               0         IfW Z-component position of node 44 (blade 2, node 15), m
        133    4.592E+01                                 F               0         IfW X-component position of node 45 (blade 2, node 16), m
        134    1.097E+00                                 F               0         IfW Y-component position of node 45 (blade 2, node 16), m
        135    2.212E+02                                 F               0         IfW Z-component position of node 45 (blade 2, node 16), m
        136    4.695E+01                                 F               0         IfW X-component position of node 46 (blade 2, node 17), m
        137    1.551E+00                                 F               0         IfW Y-component position of node 46 (blade 2, node 17), m
        138    2.249E+02                                 F               0         IfW Z-component position of node 46 (blade 2, node 17), m
        139    4.798E+01                                 F               0         IfW X-component position of node 47 (blade 2, node 18), m
        140    2.006E+00                                 F               0         IfW Y-component position of node 47 (blade 2, node 18), m
        141    2.286E+02                                 F               0         IfW Z-component position of node 47 (blade 2, node 18), m
        142    4.901E+01                                 F               0         IfW X-component position of node 48 (blade 2, node 19), m
        143    2.460E+00                                 F               0         IfW Y-component position of node 48 (blade 2, node 19), m
        144    2.323E+02                                 F               0         IfW Z-component position of node 48 (blade 2, node 19), m
        145    5.004E+01                                 F               0         IfW X-component position of node 49 (blade 2, node 20), m
        146    2.914E+00                                 F               0         IfW Y-component position of node 49 (blade 2, node 20), m
        147    2.360E+02                                 F               0         IfW Z-component position of node 49 (blade 2, node 20), m
        148    5.107E+01                                 F               0         IfW X-component position of node 50 (blade 2, node 21), m
        149    3.369E+00                                 F               0         IfW Y-component position of node 50 (blade 2, node 21), m
        150    2.397E+02                                 F               0         IfW Z-component position of node 50 (blade 2, node 21), m
        151    5.210E+01                                 F               0         IfW X-component position of node 51 (blade 2, node 22), m
        152    3.823E+00                                 F               0         IfW Y-component position of node 51 (blade 2, node 22), m
        153    2.434E+02                                 F               0         IfW Z-component position of node 51 (blade 2, node 22), m
        154    5.313E+01                                 F               0         IfW X-component position of node 52 (blade 2, node 23), m
        155    4.277E+00                                 F               0         IfW Y-component position of node 52 (blade 2, node 23), m