
Linearized model: Predictions were generated on 06-Feb-2024 at 16:18:08 using OpenFAST, compiled as a 64-bit application using single precision at commit v3.5.1
 linked with  NWTC Subroutine Library; ElastoDyn; InflowWind; AeroDyn; ServoDyn; HydroDyn; MAP++ (<1.20.10>, <Oct-20-2023>)

Description from the FAST input file: CCT-9 Campign 4 model. Input files to be run with OpenFAST 3.5.0. GitHub branch from Lu Wang (https://github.com/luwang00/openfast/tree/dev) compiled on March 7, 2023.

Simulation information:
   Simulation time:                  1003.0000 s
   Rotor Speed:                         1.0421 rad/s
   Azimuth:                             4.6265 rad
   Wind Speed:                         12.0000 m/s
   Number of continuous states:         0
   Number of discrete states:           0
   Number of constraint states:         0
   Number of inputs:                 1746
   Number of outputs:                   4
   Jacobians included in this file?    No

Order of inputs:
     Column   Operating Point                     Rotating Frame? Derivative Order Description
   ---------- ---------------                     --------------- ---------------- -----------
          1    1.513E+01                                 F               0         Tower X translation displacement, node 1, m
          2   -1.424E+00                                 F               0         Tower Y translation displacement, node 1, m
          3   -4.964E-01                                 F               0         Tower Z translation displacement, node 1, m
          4    1.704E+01                                 F               0         Tower X translation displacement, node 2, m
          5   -2.006E+00                                 F               0         Tower Y translation displacement, node 2, m
          6   -6.592E-01                                 F               0         Tower Z translation displacement, node 2, m
          7    1.899E+01                                 F               0         Tower X translation displacement, node 3, m
          8   -2.593E+00                                 F               0         Tower Y translation displacement, node 3, m
          9   -8.275E-01                                 F               0         Tower Z translation displacement, node 3, m
         10    2.096E+01                                 F               0         Tower X translation displacement, node 4, m
         11   -3.184E+00                                 F               0         Tower Y translation displacement, node 4, m
         12   -1.000E+00                                 F               0         Tower Z translation displacement, node 4, m
         13    2.296E+01                                 F               0         Tower X translation displacement, node 5, m
         14   -3.779E+00                                 F               0         Tower Y translation displacement, node 5, m
         15   -1.177E+00                                 F               0         Tower Z translation displacement, node 5, m
         16    2.497E+01                                 F               0         Tower X translation displacement, node 6, m
         17   -4.377E+00                                 F               0         Tower Y translation displacement, node 6, m
         18   -1.357E+00                                 F               0         Tower Z translation displacement, node 6, m
         19    2.699E+01                                 F               0         Tower X translation displacement, node 7, m
         20   -4.978E+00                                 F               0         Tower Y translation displacement, node 7, m
         21   -1.539E+00                                 F               0         Tower Z translation displacement, node 7, m
         22    2.903E+01                                 F               0         Tower X translation displacement, node 8, m
         23   -5.581E+00                                 F               0         Tower Y translation displacement, node 8, m
         24   -1.723E+00                                 F               0         Tower Z translation displacement, node 8, m
         25    3.108E+01                                 F               0         Tower X translation displacement, node 9, m
         26   -6.185E+00                                 F               0         Tower Y translation displacement, node 9, m
         27   -1.908E+00                                 F               0         Tower Z translation displacement, node 9, m
         28    3.313E+01                                 F               0         Tower X translation displacement, node 10, m
         29   -6.791E+00                                 F               0         Tower Y translation displacement, node 10, m
         30   -2.095E+00                                 F               0         Tower Z translation displacement, node 10, m
         31    3.518E+01                                 F               0         Tower X translation displacement, node 11, m
         32   -7.397E+00                                 F               0         Tower Y translation displacement, node 11, m
         33   -2.282E+00                                 F               0         Tower Z translation displacement, node 11, m
         34    9.881E-01, -3.532E-03, -1.540E-01         F               0         Tower X orientation angle, node 1, rad
         35    1.071E-02,  9.989E-01,  4.580E-02         F               0         Tower Y orientation angle, node 1, rad
         36    1.537E-01, -4.690E-02,  9.870E-01         F               0         Tower Z orientation angle, node 1, rad
         37    9.877E-01, -3.408E-03, -1.566E-01         F               0         Tower X orientation angle, node 2, rad
         38    1.077E-02,  9.989E-01,  4.620E-02         F               0         Tower Y orientation angle, node 2, rad
         39    1.563E-01, -4.731E-02,  9.866E-01         F               0         Tower Z orientation angle, node 2, rad
         40    9.873E-01, -3.297E-03, -1.589E-01         F               0         Tower X orientation angle, node 3, rad
         41    1.083E-02,  9.989E-01,  4.656E-02         F               0         Tower Y orientation angle, node 3, rad
         42    1.585E-01, -4.769E-02,  9.862E-01         F               0         Tower Z orientation angle, node 3, rad
         43    9.870E-01, -3.202E-03, -1.608E-01         F               0         Tower X orientation angle, node 4, rad
         44    1.088E-02,  9.988E-01,  4.687E-02         F               0         Tower Y orientation angle, node 4, rad
         45    1.605E-01, -4.801E-02,  9.859E-01         F               0         Tower Z orientation angle, node 4, rad
         46    9.867E-01, -3.122E-03, -1.625E-01         F               0         Tower X orientation angle, node 5, rad
         47    1.092E-02,  9.988E-01,  4.714E-02         F               0         Tower Y orientation angle, node 5, rad
         48    1.621E-01, -4.829E-02,  9.856E-01         F               0         Tower Z orientation angle, node 5, rad
         49    9.865E-01, -3.057E-03, -1.638E-01         F               0         Tower X orientation angle, node 6, rad
         50    1.096E-02,  9.988E-01,  4.737E-02         F               0         Tower Y orientation angle, node 6, rad
         51    1.635E-01, -4.852E-02,  9.854E-01         F               0         Tower Z orientation angle, node 6, rad
         52    9.863E-01, -3.007E-03, -1.648E-01         F               0         Tower X orientation angle, node 7, rad
         53    1.099E-02,  9.988E-01,  4.755E-02         F               0         Tower Y orientation angle, node 7, rad
         54    1.645E-01, -4.871E-02,  9.852E-01         F               0         Tower Z orientation angle, node 7, rad
         55    9.862E-01, -2.969E-03, -1.656E-01         F               0         Tower X orientation angle, node 8, rad
         56    1.101E-02,  9.988E-01,  4.769E-02         F               0         Tower Y orientation angle, node 8, rad
         57    1.652E-01, -4.885E-02,  9.850E-01         F               0         Tower Z orientation angle, node 8, rad
         58    9.861E-01, -2.942E-03, -1.661E-01         F               0         Tower X orientation angle, node 9, rad
         59    1.103E-02,  9.988E-01,  4.779E-02         F               0         Tower Y orientation angle, node 9, rad
         60    1.658E-01, -4.896E-02,  9.849E-01         F               0         Tower Z orientation angle, node 9, rad
         61    9.860E-01, -2.925E-03, -1.665E-01         F               0         Tower X orientation angle, node 10, rad
         62    1.104E-02,  9.988E-01,  4.786E-02         F               0         Tower Y orientation angle, node 10, rad
         63    1.661E-01, -4.903E-02,  9.849E-01         F               0         Tower Z orientation angle, node 10, rad
         64    9.860E-01, -2.916E-03, -1.666E-01         F               0         Tower X orientation angle, node 11, rad
         65    1.105E-02,  9.988E-01,  4.790E-02         F               0         Tower Y orientation angle, node 11, rad
         66    1.663E-01, -4.907E-02,  9.849E-01         F               0         Tower Z orientation angle, node 11, rad
         67   -1.750E-04                                 F               0         Tower X translation velocity, node 1, m/s
         68   -7.090E-04                                 F               0         Tower Y translation velocity, node 1, m/s
         69    4.629E-04                                 F               0         Tower Z translation velocity, node 1, m/s
         70   -2.530E-04                                 F               0         Tower X translation velocity, node 2, m/s
         71   -1.169E-03                                 F               0         Tower Y translation velocity, node 2, m/s
         72    4.532E-04                                 F               0         Tower Z translation velocity, node 2, m/s
         73   -3.070E-04                                 F               0         Tower X translation velocity, node 3, m/s
         74   -1.583E-03                                 F               0         Tower Y translation velocity, node 3, m/s
         75    4.419E-04                                 F               0         Tower Z translation velocity, node 3, m/s
         76   -3.434E-04                                 F               0         Tower X translation velocity, node 4, m/s
         77   -1.957E-03                                 F               0         Tower Y translation velocity, node 4, m/s
         78    4.296E-04                                 F               0         Tower Z translation velocity, node 4, m/s
         79   -3.660E-04                                 F               0         Tower X translation velocity, node 5, m/s
         80   -2.294E-03                                 F               0         Tower Y translation velocity, node 5, m/s
         81    4.168E-04                                 F               0         Tower Z translation velocity, node 5, m/s
         82   -3.782E-04                                 F               0         Tower X translation velocity, node 6, m/s
         83   -2.599E-03                                 F               0         Tower Y translation velocity, node 6, m/s
         84    4.038E-04                                 F               0         Tower Z translation velocity, node 6, m/s
         85   -3.834E-04                                 F               0         Tower X translation velocity, node 7, m/s
         86   -2.876E-03                                 F               0         Tower Y translation velocity, node 7, m/s
         87    3.910E-04                                 F               0         Tower Z translation velocity, node 7, m/s
         88   -3.833E-04                                 F               0         Tower X translation velocity, node 8, m/s
         89   -3.128E-03                                 F               0         Tower Y translation velocity, node 8, m/s
         90    3.786E-04                                 F               0         Tower Z translation velocity, node 8, m/s
         91   -3.801E-04                                 F               0         Tower X translation velocity, node 9, m/s
         92   -3.359E-03                                 F               0         Tower Y translation velocity, node 9, m/s
         93    3.666E-04                                 F               0         Tower Z translation velocity, node 9, m/s
         94   -3.752E-04                                 F               0         Tower X translation velocity, node 10, m/s
         95   -3.574E-03                                 F               0         Tower Y translation velocity, node 10, m/s
         96    3.550E-04                                 F               0         Tower Z translation velocity, node 10, m/s
         97   -3.697E-04                                 F               0         Tower X translation velocity, node 11, m/s
         98   -3.780E-03                                 F               0         Tower Y translation velocity, node 11, m/s
         99    3.438E-04                                 F               0         Tower Z translation velocity, node 11, m/s
        100    3.664E+01                                 F               0         Hub X translation displacement, node 1, m
        101   -7.750E+00                                 F               0         Hub Y translation displacement, node 1, m
        102   -6.007E-01                                 F               0         Hub Z translation displacement, node 1, m
        103    9.632E-01,  2.229E-03, -2.687E-01         F               0         Hub X orientation angle, node 1, rad
        104   -2.684E-01, -3.678E-02, -9.626E-01         F               0         Hub Y orientation angle, node 1, rad
        105   -1.203E-02,  9.993E-01, -3.483E-02         F               0         Hub Z orientation angle, node 1, rad
        106    1.004E+00                                 F               0         Hub X rotation velocity, node 1, rad/s
        107    2.323E-03                                 F               0         Hub Y rotation velocity, node 1, rad/s
        108   -2.800E-01                                 F               0         Hub Z rotation velocity, node 1, rad/s
        109    9.708E-01,  3.319E-03, -2.400E-01         F               0         Blade root 1 X orientation angle, node 1, rad
        110   -2.397E-01, -3.669E-02, -9.701E-01         F               0         Blade root 1 Y orientation angle, node 1, rad
        111   -1.203E-02,  9.993E-01, -3.483E-02         F               0         Blade root 1 Z orientation angle, node 1, rad
        112    9.591E-01, -2.399E-02, -2.819E-01         F               0         Blade root 2 X orientation angle, node 1, rad
        113    1.523E-01,  8.835E-01,  4.430E-01         F               0         Blade root 2 Y orientation angle, node 1, rad
        114    2.385E-01, -4.678E-01,  8.511E-01         F               0         Blade root 2 Z orientation angle, node 1, rad
        115    9.585E-01,  2.736E-02, -2.837E-01         F               0         Blade root 3 X orientation angle, node 1, rad
        116    1.731E-01, -8.466E-01,  5.033E-01         F               0         Blade root 3 Y orientation angle, node 1, rad
        117   -2.264E-01, -5.315E-01, -8.162E-01         F               0         Blade root 3 Z orientation angle, node 1, rad
        118    3.599E+01                                 F               0         Blade 1 X translation displacement, node 1, m
        119   -2.214E+00                                 F               0         Blade 1 Y translation displacement, node 1, m
        120   -6.303E+00                                 F               0         Blade 1 Z translation displacement, node 1, m
        121    3.584E+01                                 F               0         Blade 1 X translation displacement, node 2, m
        122   -8.801E-01                                 F               0         Blade 1 Y translation displacement, node 2, m
        123   -7.677E+00                                 F               0         Blade 1 Z translation displacement, node 2, m
        124    3.372E+01                                 F               0         Blade 1 X translation displacement, node 3, m
        125    1.726E+01                                 F               0         Blade 1 Y translation displacement, node 3, m
        126   -2.636E+01                                 F               0         Blade 1 Z translation displacement, node 3, m
        127    3.327E+01                                 F               0         Blade 1 X translation displacement, node 4, m
        128    2.112E+01                                 F               0         Blade 1 Y translation displacement, node 4, m
        129   -3.034E+01                                 F               0         Blade 1 Z translation displacement, node 4, m
        130    3.282E+01                                 F               0         Blade 1 X translation displacement, node 5, m
        131    2.499E+01                                 F               0         Blade 1 Y translation displacement, node 5, m
        132   -3.433E+01                                 F               0         Blade 1 Z translation displacement, node 5, m
        133    3.237E+01                                 F               0         Blade 1 X translation displacement, node 6, m
        134    2.886E+01                                 F               0         Blade 1 Y translation displacement, node 6, m
        135   -3.831E+01                                 F               0         Blade 1 Z translation displacement, node 6, m
        136    3.192E+01                                 F               0         Blade 1 X translation displacement, node 7, m
        137    3.272E+01                                 F               0         Blade 1 Y translation displacement, node 7, m
        138   -4.229E+01                                 F               0         Blade 1 Z translation displacement, node 7, m
        139    3.147E+01                                 F               0         Blade 1 X translation displacement, node 8, m
        140    3.659E+01                                 F               0         Blade 1 Y translation displacement, node 8, m
        141   -4.627E+01                                 F               0         Blade 1 Z translation displacement, node 8, m
        142    3.102E+01                                 F               0         Blade 1 X translation displacement, node 9, m
        143    4.045E+01                                 F               0         Blade 1 Y translation displacement, node 9, m
        144   -5.025E+01                                 F               0         Blade 1 Z translation displacement, node 9, m
        145    3.057E+01                                 F               0         Blade 1 X translation displacement, node 10, m
        146    4.432E+01                                 F               0         Blade 1 Y translation displacement, node 10, m
        147   -5.423E+01                                 F               0         Blade 1 Z translation displacement, node 10, m
        148    3.011E+01                                 F               0         Blade 1 X translation displacement, node 11, m
        149    4.818E+01                                 F               0         Blade 1 Y translation displacement, node 11, m
        150   -5.821E+01                                 F               0         Blade 1 Z translation displacement, node 11, m
        151    2.966E+01                                 F               0         Blade 1 X translation displacement, node 12, m
        152    5.205E+01                                 F               0         Blade 1 Y translation displacement, node 12, m
        153   -6.219E+01                                 F               0         Blade 1 Z translation displacement, node 12, m
        154    2.921E+01                                 F               0         Blade 1 X translation displacement, node 13, m
        155    5.591E+01                                 F               0         Blade 1 Y translation displacement, node 13, m
        156   -6.617E+01                                 F               0         Blade 1 Z translation displacement, node 13, m
        157    2.876E+01                                 F               0         Blade 1 X translation displacement, node 14, m
        158    5.978E+01                                 F               0         Blade 1 Y translation displacement, node 14, m
        159   -7.016E+01                                 F               0         Blade 1 Z translation displacement, node 14, m
        160    2.831E+01                                 F               0         Blade 1 X translation displacement, node 15, m
        161    6.364E+01                                 F               0         Blade 1 Y translation displacement, node 15, m
        162   -7.414E+01                                 F               0         Blade 1 Z translation displacement, node 15, m
        163    2.786E+01                                 F               0         Blade 1 X translation displacement, node 16, m
        164    6.751E+01                                 F               0         Blade 1 Y translation displacement, node 16, m
        165   -7.812E+01                                 F               0         Blade 1 Z translation displacement, node 16, m
        166    2.741E+01                                 F               0         Blade 1 X translation displacement, node 17, m
        167    7.137E+01                                 F               0         Blade 1 Y translation displacement, node 17, m
        168   -8.210E+01                                 F               0         Blade 1 Z translation displacement, node 17, m
        169    2.696E+01                                 F               0         Blade 1 X translation displacement, node 18, m
        170    7.524E+01                                 F               0         Blade 1 Y translation displacement, node 18, m
        171   -8.608E+01                                 F               0         Blade 1 Z translation displacement, node 18, m
        172    2.651E+01                                 F               0         Blade 1 X translation displacement, node 19, m
        173    7.910E+01                                 F               0         Blade 1 Y translation displacement, node 19, m
        174   -9.006E+01                                 F               0         Blade 1 Z translation displacement, node 19, m
        175    2.606E+01                                 F               0         Blade 1 X translation displacement, node 20, m
        176    8.297E+01                                 F               0         Blade 1 Y translation displacement, node 20, m
        177   -9.404E+01                                 F               0         Blade 1 Z translation displacement, node 20, m
        178    2.561E+01                                 F               0         Blade 1 X translation displacement, node 21, m
        179    8.683E+01                                 F               0         Blade 1 Y translation displacement, node 21, m
        180   -9.802E+01                                 F               0         Blade 1 Z translation displacement, node 21, m
        181    2.516E+01                                 F               0         Blade 1 X translation displacement, node 22, m
        182    9.070E+01                                 F               0         Blade 1 Y translation displacement, node 22, m
        183   -1.020E+02                                 F               0         Blade 1 Z translation displacement, node 22, m
        184    2.471E+01                                 F               0         Blade 1 X translation displacement, node 23, m
        185    9.456E+01                                 F               0         Blade 1 Y translation displacement, node 23, m
        186   -1.060E+02                                 F               0         Blade 1 Z translation displacement, node 23, m
        187    2.425E+01                                 F               0         Blade 1 X translation displacement, node 24, m
        188    9.843E+01                                 F               0         Blade 1 Y translation displacement, node 24, m
        189   -1.100E+02                                 F               0         Blade 1 Z translation displacement, node 24, m
        190    2.380E+01                                 F               0         Blade 1 X translation displacement, node 25, m
        191    1.023E+02                                 F               0         Blade 1 Y translation displacement, node 25, m
        192   -1.139E+02                                 F               0         Blade 1 Z translation displacement, node 25, m
        193    2.335E+01                                 F               0         Blade 1 X translation displacement, node 26, m
        194    1.062E+02                                 F               0         Blade 1 Y translation displacement, node 26, m
        195   -1.179E+02                                 F               0         Blade 1 Z translation displacement, node 26, m
        196    2.290E+01                                 F               0         Blade 1 X translation displacement, node 27, m
        197    1.100E+02                                 F               0         Blade 1 Y translation displacement, node 27, m
        198   -1.219E+02                                 F               0         Blade 1 Z translation displacement, node 27, m
        199    2.252E+01                                 F               0         Blade 1 X translation displacement, node 28, m
        200    1.133E+02                                 F               0         Blade 1 Y translation displacement, node 28, m
        201   -1.253E+02                                 F               0         Blade 1 Z translation displacement, node 28, m
        202    9.733E-01,  1.969E-02,  2.288E-01         F               0         Blade 1 X orientation angle, node 1, rad
        203    2.293E-01, -3.114E-02, -9.728E-01         F               0         Blade 1 Y orientation angle, node 1, rad
        204   -1.203E-02,  9.993E-01, -3.483E-02         F               0         Blade 1 Z orientation angle, node 1, rad
        205    9.733E-01,  1.969E-02,  2.288E-01         F               0         Blade 1 X orientation angle, node 2, rad
        206    2.293E-01, -3.114E-02, -9.728E-01         F               0         Blade 1 Y orientation angle, node 2, rad
        207   -1.203E-02,  9.993E-01, -3.483E-02         F               0         Blade 1 Z orientation angle, node 2, rad
        208    9.999E-01,  1.174E-02, -8.284E-03         F               0         Blade 1 X orientation angle, node 3, rad
        209   -7.870E-03, -3.492E-02, -9.994E-01         F               0         Blade 1 Y orientation angle, node 3, rad
        210   -1.203E-02,  9.993E-01, -3.483E-02         F               0         Blade 1 Z orientation angle, node 3, rad
        211    9.987E-01,  1.026E-02, -5.047E-02         F               0         Blade 1 X orientation angle, node 4, rad
        212   -5.008E-02, -3.539E-02, -9.981E-01         F               0         Blade 1 Y orientation angle, node 4, rad
        213   -1.203E-02,  9.993E-01, -3.483E-02         F               0         Blade 1 Z orientation angle, node 4, rad
        214    9.965E-01,  9.081E-03, -8.354E-02         F               0         Blade 1 X orientation angle, node 5, rad
        215   -8.317E-02, -3.571E-02, -9.959E-01         F               0         Blade 1 Y orientation angle, node 5, rad
        216   -1.203E-02,  9.993E-01, -3.483E-02         F               0         Blade 1 Z orientation angle, node 5, rad
        217    9.939E-01,  8.130E-03, -1.099E-01         F               0         Blade 1 X orientation angle, node 6, rad
        218   -1.096E-01, -3.594E-02, -9.933E-01         F               0         Blade 1 Y orientation angle, node 6, rad
        219   -1.203E-02,  9.993E-01, -3.483E-02         F               0         Blade 1 Z orientation angle, node 6, rad
        220    9.913E-01,  7.344E-03, -1.316E-01         F               0         Blade 1 X orientation angle, node 7, rad
        221   -1.312E-01, -3.610E-02, -9.907E-01         F               0         Blade 1 Y orientation angle, node 7, rad
        222   -1.203E-02,  9.993E-01, -3.483E-02         F               0         Blade 1 Z orientation angle, node 7, rad
        223    9.887E-01,  6.688E-03, -1.495E-01         F               0         Blade 1 X orientation angle, node 8, rad
        224   -1.492E-01, -3.623E-02, -9.881E-01         F               0         Blade 1 Y orientation angle, node 8, rad
        225   -1.203E-02,  9.993E-01, -3.483E-02         F               0         Blade 1 Z orientation angle, node 8, rad
        226    9.863E-01,  6.131E-03, -1.647E-01         F               0         Blade 1 X orientation angle, node 9, rad
        227   -1.644E-01, -3.633E-02, -9.857E-01         F               0         Blade 1 Y orientation angle, node 9, rad