
Linearized model: Predictions were generated on 06-Feb-2024 at 16:18:08 using OpenFAST, compiled as a 64-bit application using single precision at commit v3.5.1
 linked with  NWTC Subroutine Library; ElastoDyn; InflowWind; AeroDyn; ServoDyn; HydroDyn; MAP++ (<1.20.10>, <Oct-20-2023>)

Description from the FAST input file: CCT-9 Campign 4 model. Input files to be run with OpenFAST 3.5.0. GitHub branch from Lu Wang (https://github.com/luwang00/openfast/tree/dev) compiled on March 7, 2023.

Simulation information:
   Simulation time:                  1000.5000 s
   Rotor Speed:                         1.0419 rad/s
   Azimuth:                             2.0214 rad
   Wind Speed:                         12.0000 m/s
   Number of continuous states:        18
   Number of discrete states:           0
   Number of constraint states:         0
   Number of inputs:                 1890
   Number of outputs:                  19
   Jacobians included in this file?    No

Order of continuous states:
   Row/Column Operating Point                     Rotating Frame? Derivative Order Description
   ---------- ---------------                     --------------- ---------------- -----------
          1    1.231E+01                                 F               2         Platform horizontal surge translation DOF (internal DOF index = DOF_Sg), m
          2   -2.554E-01                                 F               2         Platform vertical heave translation DOF (internal DOF index = DOF_Hv), m
          3    4.692E-02                                 F               2         Platform roll tilt rotation DOF (internal DOF index = DOF_R), rad
          4    1.559E-01                                 F               2         Platform pitch tilt rotation DOF (internal DOF index = DOF_P), rad
          5    1.080E+00                                 F               2         1st tower fore-aft bending mode DOF (internal DOF index = DOF_TFA1), m
          6    1.772E-01                                 F               2         1st tower side-to-side bending mode DOF (internal DOF index = DOF_TSS1), m
          7    1.604E-03                                 F               2         2nd tower fore-aft bending mode DOF (internal DOF index = DOF_TFA2), m
          8    7.605E-05                                 F               2         2nd tower side-to-side bending mode DOF (internal DOF index = DOF_TSS2), m
          9    4.506E-01                                 F               2         Variable speed generator DOF (internal DOF index = DOF_GeAz), rad
         10    7.350E-05                                 F               2         First time derivative of Platform horizontal surge translation DOF (internal DOF index = DOF_Sg), m/s
         11   -2.787E-03                                 F               2         First time derivative of Platform vertical heave translation DOF (internal DOF index = DOF_Hv), m/s
         12   -3.090E-05                                 F               2         First time derivative of Platform roll tilt rotation DOF (internal DOF index = DOF_R), rad/s
         13   -3.638E-06                                 F               2         First time derivative of Platform pitch tilt rotation DOF (internal DOF index = DOF_P), rad/s
         14    1.417E-03                                 F               2         First time derivative of 1st tower fore-aft bending mode DOF (internal DOF index = DOF_TFA1), m/s
         15    1.125E-03                                 F               2         First time derivative of 1st tower side-to-side bending mode DOF (internal DOF index = DOF_TSS1), m/s
         16    1.353E-05                                 F               2         First time derivative of 2nd tower fore-aft bending mode DOF (internal DOF index = DOF_TFA2), m/s
         17   -1.846E-06                                 F               2         First time derivative of 2nd tower side-to-side bending mode DOF (internal DOF index = DOF_TSS2), m/s
         18    1.042E+00                                 F               2         First time derivative of Variable speed generator DOF (internal DOF index = DOF_GeAz), rad/s

Order of continuous state derivatives:
   Row/Column Operating Point                     Rotating Frame? Derivative Order Description
   ---------- ---------------                     --------------- ---------------- -----------
          1    7.350E-05                                 F               2         First time derivative of Platform horizontal surge translation DOF (internal DOF index = DOF_Sg), m/s
          2   -2.787E-03                                 F               2         First time derivative of Platform vertical heave translation DOF (internal DOF index = DOF_Hv), m/s
          3   -3.090E-05                                 F               2         First time derivative of Platform roll tilt rotation DOF (internal DOF index = DOF_R), rad/s
          4   -3.638E-06                                 F               2         First time derivative of Platform pitch tilt rotation DOF (internal DOF index = DOF_P), rad/s
          5    1.417E-03                                 F               2         First time derivative of 1st tower fore-aft bending mode DOF (internal DOF index = DOF_TFA1), m/s
          6    1.125E-03                                 F               2         First time derivative of 1st tower side-to-side bending mode DOF (internal DOF index = DOF_TSS1), m/s
          7    1.353E-05                                 F               2         First time derivative of 2nd tower fore-aft bending mode DOF (internal DOF index = DOF_TFA2), m/s
          8   -1.846E-06                                 F               2         First time derivative of 2nd tower side-to-side bending mode DOF (internal DOF index = DOF_TSS2), m/s
          9    1.042E+00                                 F               2         First time derivative of Variable speed generator DOF (internal DOF index = DOF_GeAz), rad/s
         10    1.464E-05                                 F               2         First time derivative of First time derivative of Platform horizontal surge translation DOF (internal DOF index = DOF_Sg), m/s/s
         11    1.422E-03                                 F               2         First time derivative of First time derivative of Platform vertical heave translation DOF (internal DOF index = DOF_Hv), m/s/s
         12    3.561E-05                                 F               2         First time derivative of First time derivative of Platform roll tilt rotation DOF (internal DOF index = DOF_R), rad/s/s
         13    1.336E-06                                 F               2         First time derivative of First time derivative of Platform pitch tilt rotation DOF (internal DOF index = DOF_P), rad/s/s
         14    8.409E-04                                 F               2         First time derivative of First time derivative of 1st tower fore-aft bending mode DOF (internal DOF index = DOF_TFA1), m/s/s
         15   -9.148E-04                                 F               2         First time derivative of First time derivative of 1st tower side-to-side bending mode DOF (internal DOF index = DOF_TSS1), m/s/s
         16    2.048E-05                                 F               2         First time derivative of First time derivative of 2nd tower fore-aft bending mode DOF (internal DOF index = DOF_TFA2), m/s/s
         17    6.282E-06                                 F               2         First time derivative of First time derivative of 2nd tower side-to-side bending mode DOF (internal DOF index = DOF_TSS2), m/s/s
         18    1.158E-04                                 F               2         First time derivative of First time derivative of Variable speed generator DOF (internal DOF index = DOF_GeAz), rad/s/s

Order of inputs:
     Column   Operating Point                     Rotating Frame? Derivative Order Description
   ---------- ---------------                     --------------- ---------------- -----------
          1    1.566E+02                                 F               0         Blade 1 X force, node 1, N
          2   -9.652E+01                                 F               0         Blade 1 Y force, node 1, N
          3    1.403E+02                                 F               0         Blade 1 Z force, node 1, N
          4    5.318E+02                                 F               0         Blade 1 X force, node 2, N
          5   -1.625E+02                                 F               0         Blade 1 Y force, node 2, N
          6    1.628E+02                                 F               0         Blade 1 Z force, node 2, N
          7    6.168E+02                                 F               0         Blade 1 X force, node 3, N
          8   -1.166E+02                                 F               0         Blade 1 Y force, node 3, N
          9    5.213E+01                                 F               0         Blade 1 Z force, node 3, N
         10    7.600E+02                                 F               0         Blade 1 X force, node 4, N
         11   -9.214E+01                                 F               0         Blade 1 Y force, node 4, N
         12   -3.363E+01                                 F               0         Blade 1 Z force, node 4, N
         13    9.032E+02                                 F               0         Blade 1 X force, node 5, N
         14   -6.769E+01                                 F               0         Blade 1 Y force, node 5, N
         15   -1.194E+02                                 F               0         Blade 1 Z force, node 5, N
         16    1.046E+03                                 F               0         Blade 1 X force, node 6, N
         17   -4.324E+01                                 F               0         Blade 1 Y force, node 6, N
         18   -2.052E+02                                 F               0         Blade 1 Z force, node 6, N
         19    1.190E+03                                 F               0         Blade 1 X force, node 7, N
         20   -1.879E+01                                 F               0         Blade 1 Y force, node 7, N
         21   -2.909E+02                                 F               0         Blade 1 Z force, node 7, N
         22    1.333E+03                                 F               0         Blade 1 X force, node 8, N
         23    5.661E+00                                 F               0         Blade 1 Y force, node 8, N
         24   -3.767E+02                                 F               0         Blade 1 Z force, node 8, N
         25    1.476E+03                                 F               0         Blade 1 X force, node 9, N
         26    3.011E+01                                 F               0         Blade 1 Y force, node 9, N
         27   -4.625E+02                                 F               0         Blade 1 Z force, node 9, N
         28    1.619E+03                                 F               0         Blade 1 X force, node 10, N
         29    5.456E+01                                 F               0         Blade 1 Y force, node 10, N
         30   -5.482E+02                                 F               0         Blade 1 Z force, node 10, N
         31    1.763E+03                                 F               0         Blade 1 X force, node 11, N
         32    7.901E+01                                 F               0         Blade 1 Y force, node 11, N
         33   -6.340E+02                                 F               0         Blade 1 Z force, node 11, N
         34    1.906E+03                                 F               0         Blade 1 X force, node 12, N
         35    1.035E+02                                 F               0         Blade 1 Y force, node 12, N
         36   -7.198E+02                                 F               0         Blade 1 Z force, node 12, N
         37    2.049E+03                                 F               0         Blade 1 X force, node 13, N
         38    1.279E+02                                 F               0         Blade 1 Y force, node 13, N
         39   -8.055E+02                                 F               0         Blade 1 Z force, node 13, N
         40    2.192E+03                                 F               0         Blade 1 X force, node 14, N
         41    1.524E+02                                 F               0         Blade 1 Y force, node 14, N
         42   -8.913E+02                                 F               0         Blade 1 Z force, node 14, N
         43    2.336E+03                                 F               0         Blade 1 X force, node 15, N
         44    1.768E+02                                 F               0         Blade 1 Y force, node 15, N
         45   -9.771E+02                                 F               0         Blade 1 Z force, node 15, N
         46    2.479E+03                                 F               0         Blade 1 X force, node 16, N
         47    2.013E+02                                 F               0         Blade 1 Y force, node 16, N
         48   -1.063E+03                                 F               0         Blade 1 Z force, node 16, N
         49    3.045E+03                                 F               0         Blade 1 X force, node 17, N
         50    2.610E+02                                 F               0         Blade 1 Y force, node 17, N
         51   -1.332E+03                                 F               0         Blade 1 Z force, node 17, N
         52    2.360E+03                                 F               0         Blade 1 X force, node 18, N
         53    1.973E+02                                 F               0         Blade 1 Y force, node 18, N
         54   -1.023E+03                                 F               0         Blade 1 Z force, node 18, N
         55    2.949E+03                                 F               0         Blade 1 X force, node 19, N
         56    2.348E+02                                 F               0         Blade 1 Y force, node 19, N
         57   -1.256E+03                                 F               0         Blade 1 Z force, node 19, N
         58    2.556E+03                                 F               0         Blade 1 X force, node 20, N
         59    1.945E+02                                 F               0         Blade 1 Y force, node 20, N
         60   -1.071E+03                                 F               0         Blade 1 Z force, node 20, N
         61    3.844E+03                                 F               0         Blade 1 X force, node 21, N
         62    2.770E+02                                 F               0         Blade 1 Y force, node 21, N
         63   -1.581E+03                                 F               0         Blade 1 Z force, node 21, N
         64    3.450E+03                                 F               0         Blade 1 X force, node 22, N
         65    2.348E+02                                 F               0         Blade 1 Y force, node 22, N
         66   -1.393E+03                                 F               0         Blade 1 Z force, node 22, N
         67    3.595E+03                                 F               0         Blade 1 X force, node 23, N
         68    2.324E+02                                 F               0         Blade 1 Y force, node 23, N
         69   -1.429E+03                                 F               0         Blade 1 Z force, node 23, N
         70    3.805E+03                                 F               0         Blade 1 X force, node 24, N
         71    2.339E+02                                 F               0         Blade 1 Y force, node 24, N
         72   -1.489E+03                                 F               0         Blade 1 Z force, node 24, N
         73    3.948E+03                                 F               0         Blade 1 X force, node 25, N
         74    2.303E+02                                 F               0         Blade 1 Y force, node 25, N
         75   -1.521E+03                                 F               0         Blade 1 Z force, node 25, N
         76    4.113E+03                                 F               0         Blade 1 X force, node 26, N
         77    2.278E+02                                 F               0         Blade 1 Y force, node 26, N
         78   -1.562E+03                                 F               0         Blade 1 Z force, node 26, N
         79    4.985E+03                                 F               0         Blade 1 X force, node 27, N
         80    2.618E+02                                 F               0         Blade 1 Y force, node 27, N
         81   -1.866E+03                                 F               0         Blade 1 Z force, node 27, N
         82    3.734E+03                                 F               0         Blade 1 X force, node 28, N
         83    1.859E+02                                 F               0         Blade 1 Y force, node 28, N
         84   -1.378E+03                                 F               0         Blade 1 Z force, node 28, N
         85    4.606E+03                                 F               0         Blade 1 X force, node 29, N
         86    2.190E+02                                 F               0         Blade 1 Y force, node 29, N
         87   -1.681E+03                                 F               0         Blade 1 Z force, node 29, N
         88    3.949E+03                                 F               0         Blade 1 X force, node 30, N
         89    1.796E+02                                 F               0         Blade 1 Y force, node 30, N
         90   -1.425E+03                                 F               0         Blade 1 Z force, node 30, N
         91    5.755E+03                                 F               0         Blade 1 X force, node 31, N
         92    2.482E+02                                 F               0         Blade 1 Y force, node 31, N
         93   -2.052E+03                                 F               0         Blade 1 Z force, node 31, N
         94    5.097E+03                                 F               0         Blade 1 X force, node 32, N
         95    2.081E+02                                 F               0         Blade 1 Y force, node 32, N
         96   -1.795E+03                                 F               0         Blade 1 Z force, node 32, N
         97    5.259E+03                                 F               0         Blade 1 X force, node 33, N
         98    2.040E+02                                 F               0         Blade 1 Y force, node 33, N
         99   -1.831E+03                                 F               0         Blade 1 Z force, node 33, N
        100    5.422E+03                                 F               0         Blade 1 X force, node 34, N
        101    1.999E+02                                 F               0         Blade 1 Y force, node 34, N
        102   -1.868E+03                                 F               0         Blade 1 Z force, node 34, N
        103    5.585E+03                                 F               0         Blade 1 X force, node 35, N
        104    1.954E+02                                 F               0         Blade 1 Y force, node 35, N
        105   -1.905E+03                                 F               0         Blade 1 Z force, node 35, N
        106    5.746E+03                                 F               0         Blade 1 X force, node 36, N
        107    1.909E+02                                 F               0         Blade 1 Y force, node 36, N
        108   -1.940E+03                                 F               0         Blade 1 Z force, node 36, N
        109    6.915E+03                                 F               0         Blade 1 X force, node 37, N
        110    2.173E+02                                 F               0         Blade 1 Y force, node 37, N
        111   -2.311E+03                                 F               0         Blade 1 Z force, node 37, N
        112    5.064E+03                                 F               0         Blade 1 X force, node 38, N
        113    1.506E+02                                 F               0         Blade 1 Y force, node 38, N
        114   -1.676E+03                                 F               0         Blade 1 Z force, node 38, N
        115    6.234E+03                                 F               0         Blade 1 X force, node 39, N
        116    1.768E+02                                 F               0         Blade 1 Y force, node 39, N
        117   -2.047E+03                                 F               0         Blade 1 Z force, node 39, N
        118    5.338E+03                                 F               0         Blade 1 X force, node 40, N
        119    1.443E+02                                 F               0         Blade 1 Y force, node 40, N
        120   -1.740E+03                                 F               0         Blade 1 Z force, node 40, N
        121    7.617E+03                                 F               0         Blade 1 X force, node 41, N
        122    1.946E+02                                 F               0         Blade 1 Y force, node 41, N
        123   -2.461E+03                                 F               0         Blade 1 Z force, node 41, N
        124    6.718E+03                                 F               0         Blade 1 X force, node 42, N
        125    1.617E+02                                 F               0         Blade 1 Y force, node 42, N
        126   -2.151E+03                                 F               0         Blade 1 Z force, node 42, N
        127    6.877E+03                                 F               0         Blade 1 X force, node 43, N
        128    1.564E+02                                 F               0         Blade 1 Y force, node 43, N
        129   -2.185E+03                                 F               0         Blade 1 Z force, node 43, N
        130    7.074E+03                                 F               0         Blade 1 X force, node 44, N
        131    1.518E+02                                 F               0         Blade 1 Y force, node 44, N
        132   -2.231E+03                                 F               0         Blade 1 Z force, node 44, N
        133    7.159E+03                                 F               0         Blade 1 X force, node 45, N
        134    1.448E+02                                 F               0         Blade 1 Y force, node 45, N
        135   -2.240E+03                                 F               0         Blade 1 Z force, node 45, N
        136    7.355E+03                                 F               0         Blade 1 X force, node 46, N
        137    1.400E+02                                 F               0         Blade 1 Y force, node 46, N
        138   -2.285E+03                                 F               0         Blade 1 Z force, node 46, N
        139    8.834E+03                                 F               0         Blade 1 X force, node 47, N
        140    1.574E+02                                 F               0         Blade 1 Y force, node 47, N
        141   -2.724E+03                                 F               0         Blade 1 Z force, node 47, N
        142    6.352E+03                                 F               0         Blade 1 X force, node 48, N
        143    1.058E+02                                 F               0         Blade 1 Y force, node 48, N
        144   -1.945E+03                                 F               0         Blade 1 Z force, node 48, N
        145    7.830E+03                                 F               0         Blade 1 X force, node 49, N
        146    1.230E+02                                 F               0         Blade 1 Y force, node 49, N
        147   -2.383E+03                                 F               0         Blade 1 Z force, node 49, N
        148    6.715E+03                                 F               0         Blade 1 X force, node 50, N
        149    9.927E+01                                 F               0         Blade 1 Y force, node 50, N
        150   -2.032E+03                                 F               0         Blade 1 Z force, node 50, N
        151    9.418E+03                                 F               0         Blade 1 X force, node 51, N
        152    1.294E+02                                 F               0         Blade 1 Y force, node 51, N
        153   -2.831E+03                                 F               0         Blade 1 Z force, node 51, N
        154    8.305E+03                                 F               0         Blade 1 X force, node 52, N
        155    1.056E+02                                 F               0         Blade 1 Y force, node 52, N
        156   -2.481E+03                                 F               0         Blade 1 Z force, node 52, N
        157    8.465E+03                                 F               0         Blade 1 X force, node 53, N
        158    9.985E+01                                 F               0         Blade 1 Y force, node 53, N
        159   -2.514E+03                                 F               0         Blade 1 Z force, node 53, N
        160    8.719E+03                                 F               0         Blade 1 X force, node 54, N
        161    9.504E+01                                 F               0         Blade 1 Y force, node 54, N
        162   -2.574E+03                                 F               0         Blade 1 Z force, node 54, N
        163    8.688E+03                                 F               0         Blade 1 X force, node 55, N
        164    8.709E+01                                 F               0         Blade 1 Y force, node 55, N
        165   -2.551E+03                                 F               0         Blade 1 Z force, node 55, N
        166    8.941E+03                                 F               0         Blade 1 X force, node 56, N
        167    8.214E+01                                 F               0         Blade 1 Y force, node 56, N
        168   -2.611E+03                                 F               0         Blade 1 Z force, node 56, N
        169    1.075E+04                                 F               0         Blade 1 X force, node 57, N
        170    8.937E+01                                 F               0         Blade 1 Y force, node 57, N
        171   -3.120E+03                                 F               0         Blade 1 Z force, node 57, N
        172    7.609E+03                                 F               0         Blade 1 X force, node 58, N
        173    5.694E+01                                 F               0         Blade 1 Y force, node 58, N
        174   -2.197E+03                                 F               0         Blade 1 Z force, node 58, N
        175    9.416E+03                                 F               0         Blade 1 X force, node 59, N
        176    6.407E+01                                 F               0         Blade 1 Y force, node 59, N
        177   -2.707E+03                                 F               0         Blade 1 Z force, node 59, N
        178    8.107E+03                                 F               0         Blade 1 X force, node 60, N
        179    4.972E+01                                 F               0         Blade 1 Y force, node 60, N
        180   -2.320E+03                                 F               0         Blade 1 Z force, node 60, N
        181    1.120E+04                                 F               0         Blade 1 X force, node 61, N
        182    6.013E+01                                 F               0         Blade 1 Y force, node 61, N
        183   -3.189E+03                                 F               0         Blade 1 Z force, node 61, N
        184    9.885E+03                                 F               0         Blade 1 X force, node 62, N
        185    4.557E+01                                 F               0         Blade 1 Y force, node 62, N
        186   -2.801E+03                                 F               0         Blade 1 Z force, node 62, N
        187    1.004E+04                                 F               0         Blade 1 X force, node 63, N
        188    3.928E+01                                 F               0         Blade 1 Y force, node 63, N
        189   -2.831E+03                                 F               0         Blade 1 Z force, node 63, N
        190    1.037E+04                                 F               0         Blade 1 X force, node 64, N
        191    3.353E+01                                 F               0         Blade 1 Y force, node 64, N
        192   -2.910E+03                                 F               0         Blade 1 Z force, node 64, N
        193    1.018E+04                                 F               0         Blade 1 X force, node 65, N
        194    2.632E+01                                 F               0         Blade 1 Y force, node 65, N
        195   -2.846E+03                                 F               0         Blade 1 Z force, node 65, N
        196    1.051E+04                                 F               0         Blade 1 X force, node 66, N
        197    2.068E+01                                 F               0         Blade 1 Y force, node 66, N