
Linearized model: Predictions were generated on 06-Feb-2024 at 16:18:08 using OpenFAST, compiled as a 64-bit application using single precision at commit v3.5.1
 linked with  NWTC Subroutine Library; ElastoDyn; InflowWind; AeroDyn; ServoDyn; HydroDyn; MAP++ (<1.20.10>, <Oct-20-2023>)

Description from the FAST input file: CCT-9 Campign 4 model. Input files to be run with OpenFAST 3.5.0. GitHub branch from Lu Wang (https://github.com/luwang00/openfast/tree/dev) compiled on March 7, 2023.

Simulation information:
   Simulation time:                  1006.9750 s
   Rotor Speed:                         1.0420 rad/s
   Azimuth:                             2.4849 rad
   Wind Speed:                         12.0000 m/s
   Number of continuous states:         0
   Number of discrete states:           0
   Number of constraint states:         0
   Number of inputs:                  303
   Number of outputs:                   1
   Jacobians included in this file?    No

Order of inputs:
     Column   Operating Point                     Rotating Frame? Derivative Order Description
   ---------- ---------------                     --------------- ---------------- -----------
          1   -1.080E+01                                 F               0         X-component position of node 1 (hub), m
          2    0.000E+00                                 F               0         Y-component position of node 1 (hub), m
          3    1.497E+02                                 F               0         Z-component position of node 1 (hub), m
          4    2.462E+01                                 F               0         X-component position of node 2 (blade 1, node 1), m
          5   -1.091E+01                                 F               0         Y-component position of node 2 (blade 1, node 1), m
          6    1.448E+02                                 F               0         Z-component position of node 2 (blade 1, node 1), m
          7    2.433E+01                                 F               0         X-component position of node 3 (blade 1, node 2), m
          8   -1.167E+01                                 F               0         Y-component position of node 3 (blade 1, node 2), m
          9    1.437E+02                                 F               0         Z-component position of node 3 (blade 1, node 2), m
         10    2.035E+01                                 F               0         X-component position of node 4 (blade 1, node 3), m
         11   -2.203E+01                                 F               0         Y-component position of node 4 (blade 1, node 3), m
         12    1.294E+02                                 F               0         Z-component position of node 4 (blade 1, node 3), m
         13    1.950E+01                                 F               0         X-component position of node 5 (blade 1, node 4), m
         14   -2.424E+01                                 F               0         Y-component position of node 5 (blade 1, node 4), m
         15    1.263E+02                                 F               0         Z-component position of node 5 (blade 1, node 4), m
         16    1.865E+01                                 F               0         X-component position of node 6 (blade 1, node 5), m
         17   -2.645E+01                                 F               0         Y-component position of node 6 (blade 1, node 5), m
         18    1.232E+02                                 F               0         Z-component position of node 6 (blade 1, node 5), m
         19    1.780E+01                                 F               0         X-component position of node 7 (blade 1, node 6), m
         20   -2.866E+01                                 F               0         Y-component position of node 7 (blade 1, node 6), m
         21    1.202E+02                                 F               0         Z-component position of node 7 (blade 1, node 6), m
         22    1.695E+01                                 F               0         X-component position of node 8 (blade 1, node 7), m
         23   -3.086E+01                                 F               0         Y-component position of node 8 (blade 1, node 7), m
         24    1.171E+02                                 F               0         Z-component position of node 8 (blade 1, node 7), m
         25    1.611E+01                                 F               0         X-component position of node 9 (blade 1, node 8), m
         26   -3.307E+01                                 F               0         Y-component position of node 9 (blade 1, node 8), m
         27    1.140E+02                                 F               0         Z-component position of node 9 (blade 1, node 8), m
         28    1.526E+01                                 F               0         X-component position of node 10 (blade 1, node 9), m
         29   -3.528E+01                                 F               0         Y-component position of node 10 (blade 1, node 9), m
         30    1.110E+02                                 F               0         Z-component position of node 10 (blade 1, node 9), m
         31    1.441E+01                                 F               0         X-component position of node 11 (blade 1, node 10), m
         32   -3.749E+01                                 F               0         Y-component position of node 11 (blade 1, node 10), m
         33    1.079E+02                                 F               0         Z-component position of node 11 (blade 1, node 10), m
         34    1.356E+01                                 F               0         X-component position of node 12 (blade 1, node 11), m
         35   -3.970E+01                                 F               0         Y-component position of node 12 (blade 1, node 11), m
         36    1.049E+02                                 F               0         Z-component position of node 12 (blade 1, node 11), m
         37    1.271E+01                                 F               0         X-component position of node 13 (blade 1, node 12), m
         38   -4.190E+01                                 F               0         Y-component position of node 13 (blade 1, node 12), m
         39    1.018E+02                                 F               0         Z-component position of node 13 (blade 1, node 12), m
         40    1.186E+01                                 F               0         X-component position of node 14 (blade 1, node 13), m
         41   -4.411E+01                                 F               0         Y-component position of node 14 (blade 1, node 13), m
         42    9.875E+01                                 F               0         Z-component position of node 14 (blade 1, node 13), m
         43    1.102E+01                                 F               0         X-component position of node 15 (blade 1, node 14), m
         44   -4.632E+01                                 F               0         Y-component position of node 15 (blade 1, node 14), m
         45    9.569E+01                                 F               0         Z-component position of node 15 (blade 1, node 14), m
         46    1.017E+01                                 F               0         X-component position of node 16 (blade 1, node 15), m
         47   -4.853E+01                                 F               0         Y-component position of node 16 (blade 1, node 15), m
         48    9.263E+01                                 F               0         Z-component position of node 16 (blade 1, node 15), m
         49    9.318E+00                                 F               0         X-component position of node 17 (blade 1, node 16), m
         50   -5.074E+01                                 F               0         Y-component position of node 17 (blade 1, node 16), m
         51    8.957E+01                                 F               0         Z-component position of node 17 (blade 1, node 16), m
         52    8.470E+00                                 F               0         X-component position of node 18 (blade 1, node 17), m
         53   -5.294E+01                                 F               0         Y-component position of node 18 (blade 1, node 17), m
         54    8.651E+01                                 F               0         Z-component position of node 18 (blade 1, node 17), m
         55    7.622E+00                                 F               0         X-component position of node 19 (blade 1, node 18), m
         56   -5.515E+01                                 F               0         Y-component position of node 19 (blade 1, node 18), m
         57    8.345E+01                                 F               0         Z-component position of node 19 (blade 1, node 18), m
         58    6.773E+00                                 F               0         X-component position of node 20 (blade 1, node 19), m
         59   -5.736E+01                                 F               0         Y-component position of node 20 (blade 1, node 19), m
         60    8.039E+01                                 F               0         Z-component position of node 20 (blade 1, node 19), m
         61    5.924E+00                                 F               0         X-component position of node 21 (blade 1, node 20), m
         62   -5.957E+01                                 F               0         Y-component position of node 21 (blade 1, node 20), m
         63    7.733E+01                                 F               0         Z-component position of node 21 (blade 1, node 20), m
         64    5.076E+00                                 F               0         X-component position of node 22 (blade 1, node 21), m
         65   -6.178E+01                                 F               0         Y-component position of node 22 (blade 1, node 21), m
         66    7.427E+01                                 F               0         Z-component position of node 22 (blade 1, node 21), m
         67    4.227E+00                                 F               0         X-component position of node 23 (blade 1, node 22), m
         68   -6.398E+01                                 F               0         Y-component position of node 23 (blade 1, node 22), m
         69    7.121E+01                                 F               0         Z-component position of node 23 (blade 1, node 22), m
         70    3.379E+00                                 F               0         X-component position of node 24 (blade 1, node 23), m
         71   -6.619E+01                                 F               0         Y-component position of node 24 (blade 1, node 23), m
         72    6.815E+01                                 F               0         Z-component position of node 24 (blade 1, node 23), m
         73    2.531E+00                                 F               0         X-component position of node 25 (blade 1, node 24), m
         74   -6.840E+01                                 F               0         Y-component position of node 25 (blade 1, node 24), m
         75    6.509E+01                                 F               0         Z-component position of node 25 (blade 1, node 24), m
         76    1.682E+00                                 F               0         X-component position of node 26 (blade 1, node 25), m
         77   -7.061E+01                                 F               0         Y-component position of node 26 (blade 1, node 25), m
         78    6.203E+01                                 F               0         Z-component position of node 26 (blade 1, node 25), m
         79    8.335E-01                                 F               0         X-component position of node 27 (blade 1, node 26), m
         80   -7.282E+01                                 F               0         Y-component position of node 27 (blade 1, node 26), m
         81    5.897E+01                                 F               0         Z-component position of node 27 (blade 1, node 26), m
         82   -1.497E-02                                 F               0         X-component position of node 28 (blade 1, node 27), m
         83   -7.502E+01                                 F               0         Y-component position of node 28 (blade 1, node 27), m
         84    5.591E+01                                 F               0         Z-component position of node 28 (blade 1, node 27), m
         85   -7.343E-01                                 F               0         X-component position of node 29 (blade 1, node 28), m
         86   -7.690E+01                                 F               0         Y-component position of node 29 (blade 1, node 28), m
         87    5.331E+01                                 F               0         Z-component position of node 29 (blade 1, node 28), m
         88    2.570E+01                                 F               0         X-component position of node 30 (blade 2, node 1), m
         89   -2.224E+00                                 F               0         Y-component position of node 30 (blade 2, node 1), m
         90    1.487E+02                                 F               0         Z-component position of node 30 (blade 2, node 1), m
         91    2.567E+01                                 F               0         X-component position of node 31 (blade 2, node 2), m
         92   -8.940E-01                                 F               0         Y-component position of node 31 (blade 2, node 2), m
         93    1.486E+02                                 F               0         Z-component position of node 31 (blade 2, node 2), m
         94    2.522E+01                                 F               0         X-component position of node 32 (blade 2, node 3), m
         95    1.719E+01                                 F               0         Y-component position of node 32 (blade 2, node 3), m
         96    1.471E+02                                 F               0         Z-component position of node 32 (blade 2, node 3), m
         97    2.513E+01                                 F               0         X-component position of node 33 (blade 2, node 4), m
         98    2.105E+01                                 F               0         Y-component position of node 33 (blade 2, node 4), m
         99    1.468E+02                                 F               0         Z-component position of node 33 (blade 2, node 4), m
        100    2.503E+01                                 F               0         X-component position of node 34 (blade 2, node 5), m
        101    2.490E+01                                 F               0         Y-component position of node 34 (blade 2, node 5), m
        102    1.465E+02                                 F               0         Z-component position of node 34 (blade 2, node 5), m
        103    2.494E+01                                 F               0         X-component position of node 35 (blade 2, node 6), m
        104    2.876E+01                                 F               0         Y-component position of node 35 (blade 2, node 6), m
        105    1.462E+02                                 F               0         Z-component position of node 35 (blade 2, node 6), m
        106    2.484E+01                                 F               0         X-component position of node 36 (blade 2, node 7), m
        107    3.261E+01                                 F               0         Y-component position of node 36 (blade 2, node 7), m
        108    1.459E+02                                 F               0         Z-component position of node 36 (blade 2, node 7), m
        109    2.474E+01                                 F               0         X-component position of node 37 (blade 2, node 8), m
        110    3.647E+01                                 F               0         Y-component position of node 37 (blade 2, node 8), m
        111    1.456E+02                                 F               0         Z-component position of node 37 (blade 2, node 8), m
        112    2.465E+01                                 F               0         X-component position of node 38 (blade 2, node 9), m
        113    4.032E+01                                 F               0         Y-component position of node 38 (blade 2, node 9), m
        114    1.453E+02                                 F               0         Z-component position of node 38 (blade 2, node 9), m
        115    2.455E+01                                 F               0         X-component position of node 39 (blade 2, node 10), m
        116    4.417E+01                                 F               0         Y-component position of node 39 (blade 2, node 10), m
        117    1.450E+02                                 F               0         Z-component position of node 39 (blade 2, node 10), m
        118    2.446E+01                                 F               0         X-component position of node 40 (blade 2, node 11), m
        119    4.803E+01                                 F               0         Y-component position of node 40 (blade 2, node 11), m
        120    1.447E+02                                 F               0         Z-component position of node 40 (blade 2, node 11), m
        121    2.436E+01                                 F               0         X-component position of node 41 (blade 2, node 12), m
        122    5.188E+01                                 F               0         Y-component position of node 41 (blade 2, node 12), m
        123    1.444E+02                                 F               0         Z-component position of node 41 (blade 2, node 12), m
        124    2.427E+01                                 F               0         X-component position of node 42 (blade 2, node 13), m
        125    5.574E+01                                 F               0         Y-component position of node 42 (blade 2, node 13), m
        126    1.440E+02                                 F               0         Z-component position of node 42 (blade 2, node 13), m
        127    2.417E+01                                 F               0         X-component position of node 43 (blade 2, node 14), m
        128    5.959E+01                                 F               0         Y-component position of node 43 (blade 2, node 14), m
        129    1.437E+02                                 F               0         Z-component position of node 43 (blade 2, node 14), m
        130    2.408E+01                                 F               0         X-component position of node 44 (blade 2, node 15), m
        131    6.344E+01                                 F               0         Y-component position of node 44 (blade 2, node 15), m
        132    1.434E+02                                 F               0         Z-component position of node 44 (blade 2, node 15), m
        133    2.398E+01                                 F               0         X-component position of node 45 (blade 2, node 16), m
        134    6.730E+01                                 F               0         Y-component position of node 45 (blade 2, node 16), m
        135    1.431E+02                                 F               0         Z-component position of node 45 (blade 2, node 16), m
        136    2.389E+01                                 F               0         X-component position of node 46 (blade 2, node 17), m
        137    7.115E+01                                 F               0         Y-component position of node 46 (blade 2, node 17), m
        138    1.428E+02                                 F               0         Z-component position of node 46 (blade 2, node 17), m
        139    2.379E+01                                 F               0         X-component position of node 47 (blade 2, node 18), m
        140    7.501E+01                                 F               0         Y-component position of node 47 (blade 2, node 18), m
        141    1.425E+02                                 F               0         Z-component position of node 47 (blade 2, node 18), m
        142    2.370E+01                                 F               0         X-component position of node 48 (blade 2, node 19), m
        143    7.886E+01                                 F               0         Y-component position of node 48 (blade 2, node 19), m
        144    1.422E+02                                 F               0         Z-component position of node 48 (blade 2, node 19), m
        145    2.360E+01                                 F               0         X-component position of node 49 (blade 2, node 20), m
        146    8.271E+01                                 F               0         Y-component position of node 49 (blade 2, node 20), m
        147    1.419E+02                                 F               0         Z-component position of node 49 (blade 2, node 20), m
        148    2.350E+01                                 F               0         X-component position of node 50 (blade 2, node 21), m
        149    8.657E+01                                 F               0         Y-component position of node 50 (blade 2, node 21), m
        150    1.416E+02                                 F               0         Z-component position of node 50 (blade 2, node 21), m
        151    2.341E+01                                 F               0         X-component position of node 51 (blade 2, node 22), m
        152    9.042E+01                                 F               0         Y-component position of node 51 (blade 2, node 22), m
        153    1.413E+02                                 F               0         Z-component position of node 51 (blade 2, node 22), m
        154    2.331E+01                                 F               0         X-component position of node 52 (blade 2, node 23), m
        155    9.428E+01                                 F               0         Y-component position of node 52 (blade 2, node 23), m
        156    1.409E+02                                 F               0         Z-component position of node 52 (blade 2, node 23), m
        157    2.322E+01                                 F               0         X-component position of node 53 (blade 2, node 24), m
        158    9.813E+01                                 F               0         Y-component position of node 53 (blade 2, node 24), m
        159    1.406E+02                                 F               0         Z-component position of node 53 (blade 2, node 24), m
        160    2.312E+01                                 F               0         X-component position of node 54 (blade 2, node 25), m
        161    1.020E+02                                 F               0         Y-component position of node 54 (blade 2, node 25), m
        162    1.403E+02                                 F               0         Z-component position of node 54 (blade 2, node 25), m
        163    2.303E+01                                 F               0         X-component position of node 55 (blade 2, node 26), m
        164    1.058E+02                                 F               0         Y-component position of node 55 (blade 2, node 26), m
        165    1.400E+02                                 F               0         Z-component position of node 55 (blade 2, node 26), m
        166    2.293E+01                                 F               0         X-component position of node 56 (blade 2, node 27), m
        167    1.097E+02                                 F               0         Y-component position of node 56 (blade 2, node 27), m
        168    1.397E+02                                 F               0         Z-component position of node 56 (blade 2, node 27), m
        169    2.285E+01                                 F               0         X-component position of node 57 (blade 2, node 28), m
        170    1.130E+02                                 F               0         Y-component position of node 57 (blade 2, node 28), m
        171    1.394E+02                                 F               0         Z-component position of node 57 (blade 2, node 28), m
        172    2.719E+01                                 F               0         X-component position of node 58 (blade 3, node 1), m
        173   -1.010E+01                                 F               0         Y-component position of node 58 (blade 3, node 1), m
        174    1.540E+02                                 F               0         Z-component position of node 58 (blade 3, node 1), m
        175    2.752E+01                                 F               0         X-component position of node 59 (blade 3, node 2), m
        176   -1.067E+01                                 F               0         Y-component position of node 59 (blade 3, node 2), m
        177    1.551E+02                                 F               0         Z-component position of node 59 (blade 3, node 2), m
        178    3.195E+01                                 F               0         X-component position of node 60 (blade 3, node 3), m
        179   -1.840E+01                                 F               0         Y-component position of node 60 (blade 3, node 3), m
        180    1.710E+02                                 F               0         Z-component position of node 60 (blade 3, node 3), m
        181    3.289E+01                                 F               0         X-component position of node 61 (blade 3, node 4), m
        182   -2.004E+01                                 F               0         Y-component position of node 61 (blade 3, node 4), m
        183    1.743E+02                                 F               0         Z-component position of node 61 (blade 3, node 4), m
        184    3.384E+01                                 F               0         X-component position of node 62 (blade 3, node 5), m
        185   -2.169E+01                                 F               0         Y-component position of node 62 (blade 3, node 5), m
        186    1.777E+02                                 F               0         Z-component position of node 62 (blade 3, node 5), m
        187    3.478E+01                                 F               0         X-component position of node 63 (blade 3, node 6), m
        188   -2.333E+01                                 F               0         Y-component position of node 63 (blade 3, node 6), m
        189    1.811E+02                                 F               0         Z-component position of node 63 (blade 3, node 6), m
        190    3.572E+01                                 F               0         X-component position of node 64 (blade 3, node 7), m
        191   -2.498E+01                                 F               0         Y-component position of node 64 (blade 3, node 7), m
        192    1.844E+02                                 F               0         Z-component position of node 64 (blade 3, node 7), m
        193    3.667E+01                                 F               0         X-component position of node 65 (blade 3, node 8), m
        194   -2.663E+01                                 F               0         Y-component position of node 65 (blade 3, node 8), m
        195    1.878E+02                                 F               0         Z-component position of node 65 (blade 3, node 8), m
        196    3.761E+01                                 F               0         X-component position of node 66 (blade 3, node 9), m
        197   -2.827E+01                                 F               0         Y-component position of node 66 (blade 3, node 9), m
        198    1.912E+02                                 F               0         Z-component position of node 66 (blade 3, node 9), m
        199    3.855E+01                                 F               0         X-component position of node 67 (blade 3, node 10), m
        200   -2.992E+01                                 F               0         Y-component position of node 67 (blade 3, node 10), m
        201    1.946E+02                                 F               0         Z-component position of node 67 (blade 3, node 10), m
        202    3.950E+01                                 F               0         X-component position of node 68 (blade 3, node 11), m
        203   -3.156E+01                                 F               0         Y-component position of node 68 (blade 3, node 11), m
        204    1.979E+02                                 F               0         Z-component position of node 68 (blade 3, node 11), m
        205    4.044E+01                                 F               0         X-component position of node 69 (blade 3, node 12), m
        206   -3.321E+01                                 F               0         Y-component position of node 69 (blade 3, node 12), m
        207    2.013E+02                                 F               0         Z-component position of node 69 (blade 3, node 12), m
        208    4.139E+01                                 F               0         X-component position of node 70 (blade 3, node 13), m
        209   -3.486E+01                                 F               0         Y-component position of node 70 (blade 3, node 13), m
        210    2.047E+02                                 F               0         Z-component position of node 70 (blade 3, node 13), m
        211    4.233E+01                                 F               0         X-component position of node 71 (blade 3, node 14), m