
Linearized model: Predictions were generated on 06-Feb-2024 at 16:18:08 using OpenFAST, compiled as a 64-bit application using single precision at commit v3.5.1
 linked with  NWTC Subroutine Library; ElastoDyn; InflowWind; AeroDyn; ServoDyn; HydroDyn; MAP++ (<1.20.10>, <Oct-20-2023>)

Description from the FAST input file: CCT-9 Campign 4 model. Input files to be run with OpenFAST 3.5.0. GitHub branch from Lu Wang (https://github.com/luwang00/openfast/tree/dev) compiled on March 7, 2023.

Simulation information:
   Simulation time:                  1005.2250 s
   Rotor Speed:                         1.0418 rad/s
   Azimuth:                             0.6616 rad
   Wind Speed:                         12.0000 m/s
   Number of continuous states:         0
   Number of discrete states:           0
   Number of constraint states:         0
   Number of inputs:                 1746
   Number of outputs:                   4
   Jacobians included in this file?    No

Order of inputs:
     Column   Operating Point                     Rotating Frame? Derivative Order Description
   ---------- ---------------                     --------------- ---------------- -----------
          1    1.513E+01                                 F               0         Tower X translation displacement, node 1, m
          2   -1.424E+00                                 F               0         Tower Y translation displacement, node 1, m
          3   -4.921E-01                                 F               0         Tower Z translation displacement, node 1, m
          4    1.704E+01                                 F               0         Tower X translation displacement, node 2, m
          5   -2.006E+00                                 F               0         Tower Y translation displacement, node 2, m
          6   -6.548E-01                                 F               0         Tower Z translation displacement, node 2, m
          7    1.899E+01                                 F               0         Tower X translation displacement, node 3, m
          8   -2.593E+00                                 F               0         Tower Y translation displacement, node 3, m
          9   -8.231E-01                                 F               0         Tower Z translation displacement, node 3, m
         10    2.096E+01                                 F               0         Tower X translation displacement, node 4, m
         11   -3.184E+00                                 F               0         Tower Y translation displacement, node 4, m
         12   -9.959E-01                                 F               0         Tower Z translation displacement, node 4, m
         13    2.295E+01                                 F               0         Tower X translation displacement, node 5, m
         14   -3.779E+00                                 F               0         Tower Y translation displacement, node 5, m
         15   -1.172E+00                                 F               0         Tower Z translation displacement, node 5, m
         16    2.497E+01                                 F               0         Tower X translation displacement, node 6, m
         17   -4.377E+00                                 F               0         Tower Y translation displacement, node 6, m
         18   -1.352E+00                                 F               0         Tower Z translation displacement, node 6, m
         19    2.699E+01                                 F               0         Tower X translation displacement, node 7, m
         20   -4.978E+00                                 F               0         Tower Y translation displacement, node 7, m
         21   -1.534E+00                                 F               0         Tower Z translation displacement, node 7, m
         22    2.903E+01                                 F               0         Tower X translation displacement, node 8, m
         23   -5.581E+00                                 F               0         Tower Y translation displacement, node 8, m
         24   -1.718E+00                                 F               0         Tower Z translation displacement, node 8, m
         25    3.108E+01                                 F               0         Tower X translation displacement, node 9, m
         26   -6.185E+00                                 F               0         Tower Y translation displacement, node 9, m
         27   -1.904E+00                                 F               0         Tower Z translation displacement, node 9, m
         28    3.313E+01                                 F               0         Tower X translation displacement, node 10, m
         29   -6.791E+00                                 F               0         Tower Y translation displacement, node 10, m
         30   -2.090E+00                                 F               0         Tower Z translation displacement, node 10, m
         31    3.518E+01                                 F               0         Tower X translation displacement, node 11, m
         32   -7.397E+00                                 F               0         Tower Y translation displacement, node 11, m
         33   -2.277E+00                                 F               0         Tower Z translation displacement, node 11, m
         34    9.881E-01, -3.532E-03, -1.540E-01         F               0         Tower X orientation angle, node 1, rad
         35    1.071E-02,  9.989E-01,  4.580E-02         F               0         Tower Y orientation angle, node 1, rad
         36    1.536E-01, -4.690E-02,  9.870E-01         F               0         Tower Z orientation angle, node 1, rad
         37    9.877E-01, -3.408E-03, -1.566E-01         F               0         Tower X orientation angle, node 2, rad
         38    1.077E-02,  9.989E-01,  4.620E-02         F               0         Tower Y orientation angle, node 2, rad
         39    1.562E-01, -4.731E-02,  9.866E-01         F               0         Tower Z orientation angle, node 2, rad
         40    9.873E-01, -3.297E-03, -1.589E-01         F               0         Tower X orientation angle, node 3, rad
         41    1.083E-02,  9.989E-01,  4.656E-02         F               0         Tower Y orientation angle, node 3, rad
         42    1.585E-01, -4.769E-02,  9.862E-01         F               0         Tower Z orientation angle, node 3, rad
         43    9.870E-01, -3.202E-03, -1.608E-01         F               0         Tower X orientation angle, node 4, rad
         44    1.088E-02,  9.988E-01,  4.687E-02         F               0         Tower Y orientation angle, node 4, rad
         45    1.605E-01, -4.801E-02,  9.859E-01         F               0         Tower Z orientation angle, node 4, rad
         46    9.867E-01, -3.122E-03, -1.625E-01         F               0         Tower X orientation angle, node 5, rad
         47    1.092E-02,  9.988E-01,  4.714E-02         F               0         Tower Y orientation angle, node 5, rad
         48    1.621E-01, -4.829E-02,  9.856E-01         F               0         Tower Z orientation angle, node 5, rad
         49    9.865E-01, -3.057E-03, -1.638E-01         F               0         Tower X orientation angle, node 6, rad
         50    1.096E-02,  9.988E-01,  4.737E-02         F               0         Tower Y orientation angle, node 6, rad
         51    1.635E-01, -4.852E-02,  9.854E-01         F               0         Tower Z orientation angle, node 6, rad
         52    9.863E-01, -3.006E-03, -1.648E-01         F               0         Tower X orientation angle, node 7, rad
         53    1.099E-02,  9.988E-01,  4.755E-02         F               0         Tower Y orientation angle, node 7, rad
         54    1.645E-01, -4.871E-02,  9.852E-01         F               0         Tower Z orientation angle, node 7, rad
         55    9.862E-01, -2.968E-03, -1.656E-01         F               0         Tower X orientation angle, node 8, rad
         56    1.101E-02,  9.988E-01,  4.769E-02         F               0         Tower Y orientation angle, node 8, rad
         57    1.652E-01, -4.885E-02,  9.850E-01         F               0         Tower Z orientation angle, node 8, rad
         58    9.861E-01, -2.941E-03, -1.661E-01         F               0         Tower X orientation angle, node 9, rad
         59    1.103E-02,  9.988E-01,  4.779E-02         F               0         Tower Y orientation angle, node 9, rad
         60    1.658E-01, -4.896E-02,  9.849E-01         F               0         Tower Z orientation angle, node 9, rad
         61    9.860E-01, -2.924E-03, -1.665E-01         F               0         Tower X orientation angle, node 10, rad
         62    1.104E-02,  9.988E-01,  4.786E-02         F               0         Tower Y orientation angle, node 10, rad
         63    1.661E-01, -4.903E-02,  9.849E-01         F               0         Tower Z orientation angle, node 10, rad
         64    9.860E-01, -2.915E-03, -1.666E-01         F               0         Tower X orientation angle, node 11, rad
         65    1.105E-02,  9.988E-01,  4.789E-02         F               0         Tower Y orientation angle, node 11, rad
         66    1.663E-01, -4.907E-02,  9.849E-01         F               0         Tower Z orientation angle, node 11, rad
         67    1.715E-04                                 F               0         Tower X translation velocity, node 1, m/s
         68    7.276E-04                                 F               0         Tower Y translation velocity, node 1, m/s
         69    3.474E-03                                 F               0         Tower Z translation velocity, node 1, m/s
         70    2.066E-04                                 F               0         Tower X translation velocity, node 2, m/s
         71    1.194E-03                                 F               0         Tower Y translation velocity, node 2, m/s
         72    3.490E-03                                 F               0         Tower Z translation velocity, node 2, m/s
         73    2.166E-04                                 F               0         Tower X translation velocity, node 3, m/s
         74    1.599E-03                                 F               0         Tower Y translation velocity, node 3, m/s
         75    3.508E-03                                 F               0         Tower Z translation velocity, node 3, m/s
         76    2.097E-04                                 F               0         Tower X translation velocity, node 4, m/s
         77    1.955E-03                                 F               0         Tower Y translation velocity, node 4, m/s
         78    3.527E-03                                 F               0         Tower Z translation velocity, node 4, m/s
         79    1.909E-04                                 F               0         Tower X translation velocity, node 5, m/s
         80    2.267E-03                                 F               0         Tower Y translation velocity, node 5, m/s
         81    3.545E-03                                 F               0         Tower Z translation velocity, node 5, m/s
         82    1.649E-04                                 F               0         Tower X translation velocity, node 6, m/s
         83    2.542E-03                                 F               0         Tower Y translation velocity, node 6, m/s
         84    3.563E-03                                 F               0         Tower Z translation velocity, node 6, m/s
         85    1.354E-04                                 F               0         Tower X translation velocity, node 7, m/s
         86    2.788E-03                                 F               0         Tower Y translation velocity, node 7, m/s
         87    3.580E-03                                 F               0         Tower Z translation velocity, node 7, m/s
         88    1.047E-04                                 F               0         Tower X translation velocity, node 8, m/s
         89    3.008E-03                                 F               0         Tower Y translation velocity, node 8, m/s
         90    3.596E-03                                 F               0         Tower Z translation velocity, node 8, m/s
         91    7.470E-05                                 F               0         Tower X translation velocity, node 9, m/s
         92    3.208E-03                                 F               0         Tower Y translation velocity, node 9, m/s
         93    3.611E-03                                 F               0         Tower Z translation velocity, node 9, m/s
         94    4.637E-05                                 F               0         Tower X translation velocity, node 10, m/s
         95    3.394E-03                                 F               0         Tower Y translation velocity, node 10, m/s
         96    3.625E-03                                 F               0         Tower Z translation velocity, node 10, m/s
         97    1.986E-05                                 F               0         Tower X translation velocity, node 11, m/s
         98    3.570E-03                                 F               0         Tower Y translation velocity, node 11, m/s
         99    3.638E-03                                 F               0         Tower Z translation velocity, node 11, m/s
        100    3.664E+01                                 F               0         Hub X translation displacement, node 1, m
        101   -7.750E+00                                 F               0         Hub Y translation displacement, node 1, m
        102   -5.963E-01                                 F               0         Hub Z translation displacement, node 1, m
        103    9.632E-01,  2.229E-03, -2.687E-01         F               0         Hub X orientation angle, node 1, rad
        104    1.737E-01,  7.579E-01,  6.289E-01         F               0         Hub Y orientation angle, node 1, rad
        105    2.050E-01, -6.524E-01,  7.296E-01         F               0         Hub Z orientation angle, node 1, rad
        106    1.004E+00                                 F               0         Hub X rotation velocity, node 1, rad/s
        107    2.321E-03                                 F               0         Hub Y rotation velocity, node 1, rad/s
        108   -2.799E-01                                 F               0         Hub Z rotation velocity, node 1, rad/s
        109    9.577E-01, -2.025E-02, -2.872E-01         F               0         Blade root 1 X orientation angle, node 1, rad
        110    2.022E-01,  7.576E-01,  6.206E-01         F               0         Blade root 1 Y orientation angle, node 1, rad
        111    2.050E-01, -6.524E-01,  7.296E-01         F               0         Blade root 1 Z orientation angle, node 1, rad
        112    9.601E-01,  3.023E-02, -2.780E-01         F               0         Blade root 2 X orientation angle, node 1, rad
        113    1.193E-01, -9.435E-01,  3.093E-01         F               0         Blade root 2 Y orientation angle, node 1, rad
        114   -2.529E-01, -3.301E-01, -9.094E-01         F               0         Blade root 2 Z orientation angle, node 1, rad
        115    9.706E-01, -3.292E-03, -2.405E-01         F               0         Blade root 3 X orientation angle, node 1, rad
        116   -2.357E-01,  1.861E-01, -9.539E-01         F               0         Blade root 3 Y orientation angle, node 1, rad
        117    4.789E-02,  9.825E-01,  1.798E-01         F               0         Blade root 3 Z orientation angle, node 1, rad
        118    3.719E+01                                 F               0         Blade 1 X translation displacement, node 1, m
        119   -1.136E+01                                 F               0         Blade 1 Y translation displacement, node 1, m
        120   -2.064E+00                                 F               0         Blade 1 Z translation displacement, node 1, m
        121    3.733E+01                                 F               0         Blade 1 X translation displacement, node 2, m
        122   -1.224E+01                                 F               0         Blade 1 Y translation displacement, node 2, m
        123   -2.418E+00                                 F               0         Blade 1 Z translation displacement, node 2, m
        124    3.915E+01                                 F               0         Blade 1 X translation displacement, node 3, m
        125   -2.408E+01                                 F               0         Blade 1 Y translation displacement, node 3, m
        126   -7.226E+00                                 F               0         Blade 1 Z translation displacement, node 3, m
        127    3.954E+01                                 F               0         Blade 1 X translation displacement, node 4, m
        128   -2.660E+01                                 F               0         Blade 1 Y translation displacement, node 4, m
        129   -8.251E+00                                 F               0         Blade 1 Z translation displacement, node 4, m
        130    3.993E+01                                 F               0         Blade 1 X translation displacement, node 5, m
        131   -2.913E+01                                 F               0         Blade 1 Y translation displacement, node 5, m
        132   -9.276E+00                                 F               0         Blade 1 Z translation displacement, node 5, m
        133    4.032E+01                                 F               0         Blade 1 X translation displacement, node 6, m
        134   -3.165E+01                                 F               0         Blade 1 Y translation displacement, node 6, m
        135   -1.030E+01                                 F               0         Blade 1 Z translation displacement, node 6, m
        136    4.071E+01                                 F               0         Blade 1 X translation displacement, node 7, m
        137   -3.417E+01                                 F               0         Blade 1 Y translation displacement, node 7, m
        138   -1.132E+01                                 F               0         Blade 1 Z translation displacement, node 7, m
        139    4.110E+01                                 F               0         Blade 1 X translation displacement, node 8, m
        140   -3.670E+01                                 F               0         Blade 1 Y translation displacement, node 8, m
        141   -1.235E+01                                 F               0         Blade 1 Z translation displacement, node 8, m
        142    4.148E+01                                 F               0         Blade 1 X translation displacement, node 9, m
        143   -3.922E+01                                 F               0         Blade 1 Y translation displacement, node 9, m
        144   -1.337E+01                                 F               0         Blade 1 Z translation displacement, node 9, m
        145    4.187E+01                                 F               0         Blade 1 X translation displacement, node 10, m
        146   -4.174E+01                                 F               0         Blade 1 Y translation displacement, node 10, m
        147   -1.440E+01                                 F               0         Blade 1 Z translation displacement, node 10, m
        148    4.226E+01                                 F               0         Blade 1 X translation displacement, node 11, m
        149   -4.427E+01                                 F               0         Blade 1 Y translation displacement, node 11, m
        150   -1.542E+01                                 F               0         Blade 1 Z translation displacement, node 11, m
        151    4.265E+01                                 F               0         Blade 1 X translation displacement, node 12, m
        152   -4.679E+01                                 F               0         Blade 1 Y translation displacement, node 12, m
        153   -1.645E+01                                 F               0         Blade 1 Z translation displacement, node 12, m
        154    4.304E+01                                 F               0         Blade 1 X translation displacement, node 13, m
        155   -4.931E+01                                 F               0         Blade 1 Y translation displacement, node 13, m
        156   -1.747E+01                                 F               0         Blade 1 Z translation displacement, node 13, m
        157    4.343E+01                                 F               0         Blade 1 X translation displacement, node 14, m
        158   -5.184E+01                                 F               0         Blade 1 Y translation displacement, node 14, m
        159   -1.850E+01                                 F               0         Blade 1 Z translation displacement, node 14, m
        160    4.382E+01                                 F               0         Blade 1 X translation displacement, node 15, m
        161   -5.436E+01                                 F               0         Blade 1 Y translation displacement, node 15, m
        162   -1.952E+01                                 F               0         Blade 1 Z translation displacement, node 15, m
        163    4.420E+01                                 F               0         Blade 1 X translation displacement, node 16, m
        164   -5.688E+01                                 F               0         Blade 1 Y translation displacement, node 16, m
        165   -2.055E+01                                 F               0         Blade 1 Z translation displacement, node 16, m
        166    4.459E+01                                 F               0         Blade 1 X translation displacement, node 17, m
        167   -5.941E+01                                 F               0         Blade 1 Y translation displacement, node 17, m
        168   -2.157E+01                                 F               0         Blade 1 Z translation displacement, node 17, m
        169    4.498E+01                                 F               0         Blade 1 X translation displacement, node 18, m
        170   -6.193E+01                                 F               0         Blade 1 Y translation displacement, node 18, m
        171   -2.260E+01                                 F               0         Blade 1 Z translation displacement, node 18, m
        172    4.537E+01                                 F               0         Blade 1 X translation displacement, node 19, m
        173   -6.445E+01                                 F               0         Blade 1 Y translation displacement, node 19, m
        174   -2.362E+01                                 F               0         Blade 1 Z translation displacement, node 19, m
        175    4.576E+01                                 F               0         Blade 1 X translation displacement, node 20, m
        176   -6.698E+01                                 F               0         Blade 1 Y translation displacement, node 20, m
        177   -2.465E+01                                 F               0         Blade 1 Z translation displacement, node 20, m
        178    4.615E+01                                 F               0         Blade 1 X translation displacement, node 21, m
        179   -6.950E+01                                 F               0         Blade 1 Y translation displacement, node 21, m
        180   -2.567E+01                                 F               0         Blade 1 Z translation displacement, node 21, m
        181    4.654E+01                                 F               0         Blade 1 X translation displacement, node 22, m
        182   -7.202E+01                                 F               0         Blade 1 Y translation displacement, node 22, m
        183   -2.669E+01                                 F               0         Blade 1 Z translation displacement, node 22, m
        184    4.693E+01                                 F               0         Blade 1 X translation displacement, node 23, m
        185   -7.455E+01                                 F               0         Blade 1 Y translation displacement, node 23, m
        186   -2.772E+01                                 F               0         Blade 1 Z translation displacement, node 23, m
        187    4.731E+01                                 F               0         Blade 1 X translation displacement, node 24, m
        188   -7.707E+01                                 F               0         Blade 1 Y translation displacement, node 24, m
        189   -2.874E+01                                 F               0         Blade 1 Z translation displacement, node 24, m
        190    4.770E+01                                 F               0         Blade 1 X translation displacement, node 25, m
        191   -7.959E+01                                 F               0         Blade 1 Y translation displacement, node 25, m
        192   -2.977E+01                                 F               0         Blade 1 Z translation displacement, node 25, m
        193    4.809E+01                                 F               0         Blade 1 X translation displacement, node 26, m
        194   -8.212E+01                                 F               0         Blade 1 Y translation displacement, node 26, m
        195   -3.079E+01                                 F               0         Blade 1 Z translation displacement, node 26, m
        196    4.848E+01                                 F               0         Blade 1 X translation displacement, node 27, m
        197   -8.464E+01                                 F               0         Blade 1 Y translation displacement, node 27, m
        198   -3.182E+01                                 F               0         Blade 1 Z translation displacement, node 27, m
        199    4.881E+01                                 F               0         Blade 1 X translation displacement, node 28, m
        200   -8.678E+01                                 F               0         Blade 1 Y translation displacement, node 28, m
        201   -3.269E+01                                 F               0         Blade 1 Z translation displacement, node 28, m
        202    7.601E-01, -3.635E-01, -5.386E-01         F               0         Blade 1 X orientation angle, node 1, rad
        203    6.166E-01,  6.650E-01,  4.214E-01         F               0         Blade 1 Y orientation angle, node 1, rad
        204    2.050E-01, -6.524E-01,  7.296E-01         F               0         Blade 1 Z orientation angle, node 1, rad
        205    7.601E-01, -3.635E-01, -5.386E-01         F               0         Blade 1 X orientation angle, node 2, rad
        206    6.166E-01,  6.650E-01,  4.214E-01         F               0         Blade 1 Y orientation angle, node 2, rad
        207    2.050E-01, -6.524E-01,  7.296E-01         F               0         Blade 1 Z orientation angle, node 2, rad
        208    8.846E-01, -1.955E-01, -4.234E-01         F               0         Blade 1 X orientation angle, node 3, rad
        209    4.189E-01,  7.322E-01,  5.370E-01         F               0         Blade 1 Y orientation angle, node 3, rad
        210    2.050E-01, -6.524E-01,  7.296E-01         F               0         Blade 1 Z orientation angle, node 3, rad
        211    9.015E-01, -1.644E-01, -4.004E-01         F               0         Blade 1 X orientation angle, node 4, rad
        212    3.812E-01,  7.398E-01,  5.544E-01         F               0         Blade 1 Y orientation angle, node 4, rad
        213    2.050E-01, -6.524E-01,  7.296E-01         F               0         Blade 1 Z orientation angle, node 4, rad
        214    9.136E-01, -1.398E-01, -3.818E-01         F               0         Blade 1 X orientation angle, node 5, rad
        215    3.511E-01,  7.449E-01,  5.674E-01         F               0         Blade 1 Y orientation angle, node 5, rad
        216    2.050E-01, -6.524E-01,  7.296E-01         F               0         Blade 1 Z orientation angle, node 5, rad
        217    9.226E-01, -1.200E-01, -3.666E-01         F               0         Blade 1 X orientation angle, node 6, rad
        218    3.267E-01,  7.483E-01,  5.773E-01         F               0         Blade 1 Y orientation angle, node 6, rad
        219    2.050E-01, -6.524E-01,  7.296E-01         F               0         Blade 1 Z orientation angle, node 6, rad
        220    9.295E-01, -1.037E-01, -3.539E-01         F               0         Blade 1 X orientation angle, node 7, rad
        221    3.065E-01,  7.507E-01,  5.852E-01         F               0         Blade 1 Y orientation angle, node 7, rad
        222    2.050E-01, -6.524E-01,  7.296E-01         F               0         Blade 1 Z orientation angle, node 7, rad
        223    9.349E-01, -9.002E-02, -3.432E-01         F               0         Blade 1 X orientation angle, node 8, rad
        224    2.896E-01,  7.525E-01,  5.915E-01         F               0         Blade 1 Y orientation angle, node 8, rad
        225    2.050E-01, -6.524E-01,  7.296E-01         F               0         Blade 1 Z orientation angle, node 8, rad
        226    9.393E-01, -7.845E-02, -3.341E-01         F               0         Blade 1 X orientation angle, node 9, rad
        227    2.752E-01,  7.538E-01,  5.967E-01         F               0         Blade 1 Y orientation angle, node 9, rad