
Linearized model: Predictions were generated on 06-Feb-2024 at 16:18:08 using OpenFAST, compiled as a 64-bit application using single precision at commit v3.5.1
 linked with  NWTC Subroutine Library; ElastoDyn; InflowWind; AeroDyn; ServoDyn; HydroDyn; MAP++ (<1.20.10>, <Oct-20-2023>)

Description from the FAST input file: CCT-9 Campign 4 model. Input files to be run with OpenFAST 3.5.0. GitHub branch from Lu Wang (https://github.com/luwang00/openfast/tree/dev) compiled on March 7, 2023.

Simulation information:
   Simulation time:                  1005.4750 s
   Rotor Speed:                         1.0418 rad/s
   Azimuth:                             0.9221 rad
   Wind Speed:                         12.0000 m/s
   Number of continuous states:         0
   Number of discrete states:           0
   Number of constraint states:         0
   Number of inputs:                  303
   Number of outputs:                   1
   Jacobians included in this file?    No

Order of inputs:
     Column   Operating Point                     Rotating Frame? Derivative Order Description
   ---------- ---------------                     --------------- ---------------- -----------
          1   -1.080E+01                                 F               0         X-component position of node 1 (hub), m
          2    0.000E+00                                 F               0         Y-component position of node 1 (hub), m
          3    1.497E+02                                 F               0         Z-component position of node 1 (hub), m
          4    2.669E+01                                 F               0         X-component position of node 2 (blade 1, node 1), m
          5   -1.232E+01                                 F               0         Y-component position of node 2 (blade 1, node 1), m
          6    1.522E+02                                 F               0         Z-component position of node 2 (blade 1, node 1), m
          7    2.689E+01                                 F               0         X-component position of node 3 (blade 1, node 2), m
          8   -1.343E+01                                 F               0         Y-component position of node 3 (blade 1, node 2), m
          9    1.529E+02                                 F               0         Z-component position of node 3 (blade 1, node 2), m
         10    2.968E+01                                 F               0         X-component position of node 4 (blade 1, node 3), m
         11   -2.841E+01                                 F               0         Y-component position of node 4 (blade 1, node 3), m
         12    1.627E+02                                 F               0         Z-component position of node 4 (blade 1, node 3), m
         13    3.027E+01                                 F               0         X-component position of node 5 (blade 1, node 4), m
         14   -3.160E+01                                 F               0         Y-component position of node 5 (blade 1, node 4), m
         15    1.648E+02                                 F               0         Z-component position of node 5 (blade 1, node 4), m
         16    3.086E+01                                 F               0         X-component position of node 6 (blade 1, node 5), m
         17   -3.480E+01                                 F               0         Y-component position of node 6 (blade 1, node 5), m
         18    1.669E+02                                 F               0         Z-component position of node 6 (blade 1, node 5), m
         19    3.146E+01                                 F               0         X-component position of node 7 (blade 1, node 6), m
         20   -3.799E+01                                 F               0         Y-component position of node 7 (blade 1, node 6), m
         21    1.690E+02                                 F               0         Z-component position of node 7 (blade 1, node 6), m
         22    3.205E+01                                 F               0         X-component position of node 8 (blade 1, node 7), m
         23   -4.118E+01                                 F               0         Y-component position of node 8 (blade 1, node 7), m
         24    1.711E+02                                 F               0         Z-component position of node 8 (blade 1, node 7), m
         25    3.264E+01                                 F               0         X-component position of node 9 (blade 1, node 8), m
         26   -4.438E+01                                 F               0         Y-component position of node 9 (blade 1, node 8), m
         27    1.732E+02                                 F               0         Z-component position of node 9 (blade 1, node 8), m
         28    3.323E+01                                 F               0         X-component position of node 10 (blade 1, node 9), m
         29   -4.757E+01                                 F               0         Y-component position of node 10 (blade 1, node 9), m
         30    1.753E+02                                 F               0         Z-component position of node 10 (blade 1, node 9), m
         31    3.383E+01                                 F               0         X-component position of node 11 (blade 1, node 10), m
         32   -5.076E+01                                 F               0         Y-component position of node 11 (blade 1, node 10), m
         33    1.774E+02                                 F               0         Z-component position of node 11 (blade 1, node 10), m
         34    3.442E+01                                 F               0         X-component position of node 12 (blade 1, node 11), m
         35   -5.396E+01                                 F               0         Y-component position of node 12 (blade 1, node 11), m
         36    1.795E+02                                 F               0         Z-component position of node 12 (blade 1, node 11), m
         37    3.501E+01                                 F               0         X-component position of node 13 (blade 1, node 12), m
         38   -5.715E+01                                 F               0         Y-component position of node 13 (blade 1, node 12), m
         39    1.816E+02                                 F               0         Z-component position of node 13 (blade 1, node 12), m
         40    3.561E+01                                 F               0         X-component position of node 14 (blade 1, node 13), m
         41   -6.034E+01                                 F               0         Y-component position of node 14 (blade 1, node 13), m
         42    1.837E+02                                 F               0         Z-component position of node 14 (blade 1, node 13), m
         43    3.620E+01                                 F               0         X-component position of node 15 (blade 1, node 14), m
         44   -6.354E+01                                 F               0         Y-component position of node 15 (blade 1, node 14), m
         45    1.858E+02                                 F               0         Z-component position of node 15 (blade 1, node 14), m
         46    3.679E+01                                 F               0         X-component position of node 16 (blade 1, node 15), m
         47   -6.673E+01                                 F               0         Y-component position of node 16 (blade 1, node 15), m
         48    1.879E+02                                 F               0         Z-component position of node 16 (blade 1, node 15), m
         49    3.739E+01                                 F               0         X-component position of node 17 (blade 1, node 16), m
         50   -6.992E+01                                 F               0         Y-component position of node 17 (blade 1, node 16), m
         51    1.900E+02                                 F               0         Z-component position of node 17 (blade 1, node 16), m
         52    3.798E+01                                 F               0         X-component position of node 18 (blade 1, node 17), m
         53   -7.311E+01                                 F               0         Y-component position of node 18 (blade 1, node 17), m
         54    1.921E+02                                 F               0         Z-component position of node 18 (blade 1, node 17), m
         55    3.857E+01                                 F               0         X-component position of node 19 (blade 1, node 18), m
         56   -7.631E+01                                 F               0         Y-component position of node 19 (blade 1, node 18), m
         57    1.942E+02                                 F               0         Z-component position of node 19 (blade 1, node 18), m
         58    3.917E+01                                 F               0         X-component position of node 20 (blade 1, node 19), m
         59   -7.950E+01                                 F               0         Y-component position of node 20 (blade 1, node 19), m
         60    1.963E+02                                 F               0         Z-component position of node 20 (blade 1, node 19), m
         61    3.976E+01                                 F               0         X-component position of node 21 (blade 1, node 20), m
         62   -8.269E+01                                 F               0         Y-component position of node 21 (blade 1, node 20), m
         63    1.984E+02                                 F               0         Z-component position of node 21 (blade 1, node 20), m
         64    4.035E+01                                 F               0         X-component position of node 22 (blade 1, node 21), m
         65   -8.589E+01                                 F               0         Y-component position of node 22 (blade 1, node 21), m
         66    2.005E+02                                 F               0         Z-component position of node 22 (blade 1, node 21), m
         67    4.095E+01                                 F               0         X-component position of node 23 (blade 1, node 22), m
         68   -8.908E+01                                 F               0         Y-component position of node 23 (blade 1, node 22), m
         69    2.026E+02                                 F               0         Z-component position of node 23 (blade 1, node 22), m
         70    4.154E+01                                 F               0         X-component position of node 24 (blade 1, node 23), m
         71   -9.227E+01                                 F               0         Y-component position of node 24 (blade 1, node 23), m
         72    2.047E+02                                 F               0         Z-component position of node 24 (blade 1, node 23), m
         73    4.213E+01                                 F               0         X-component position of node 25 (blade 1, node 24), m
         74   -9.547E+01                                 F               0         Y-component position of node 25 (blade 1, node 24), m
         75    2.068E+02                                 F               0         Z-component position of node 25 (blade 1, node 24), m
         76    4.273E+01                                 F               0         X-component position of node 26 (blade 1, node 25), m
         77   -9.866E+01                                 F               0         Y-component position of node 26 (blade 1, node 25), m
         78    2.089E+02                                 F               0         Z-component position of node 26 (blade 1, node 25), m
         79    4.332E+01                                 F               0         X-component position of node 27 (blade 1, node 26), m
         80   -1.019E+02                                 F               0         Y-component position of node 27 (blade 1, node 26), m
         81    2.110E+02                                 F               0         Z-component position of node 27 (blade 1, node 26), m
         82    4.391E+01                                 F               0         X-component position of node 28 (blade 1, node 27), m
         83   -1.050E+02                                 F               0         Y-component position of node 28 (blade 1, node 27), m
         84    2.131E+02                                 F               0         Z-component position of node 28 (blade 1, node 27), m
         85    4.442E+01                                 F               0         X-component position of node 29 (blade 1, node 28), m
         86   -1.078E+02                                 F               0         Y-component position of node 29 (blade 1, node 28), m
         87    2.149E+02                                 F               0         Z-component position of node 29 (blade 1, node 28), m
         88    2.435E+01                                 F               0         X-component position of node 30 (blade 2, node 1), m
         89   -8.170E+00                                 F               0         Y-component position of node 30 (blade 2, node 1), m
         90    1.438E+02                                 F               0         Z-component position of node 30 (blade 2, node 1), m
         91    2.400E+01                                 F               0         X-component position of node 31 (blade 2, node 2), m
         92   -8.271E+00                                 F               0         Y-component position of node 31 (blade 2, node 2), m
         93    1.425E+02                                 F               0         Z-component position of node 31 (blade 2, node 2), m
         94    1.914E+01                                 F               0         X-component position of node 32 (blade 2, node 3), m
         95   -9.649E+00                                 F               0         Y-component position of node 32 (blade 2, node 3), m
         96    1.251E+02                                 F               0         Z-component position of node 32 (blade 2, node 3), m
         97    1.810E+01                                 F               0         X-component position of node 33 (blade 2, node 4), m
         98   -9.943E+00                                 F               0         Y-component position of node 33 (blade 2, node 4), m
         99    1.214E+02                                 F               0         Z-component position of node 33 (blade 2, node 4), m
        100    1.706E+01                                 F               0         X-component position of node 34 (blade 2, node 5), m
        101   -1.024E+01                                 F               0         Y-component position of node 34 (blade 2, node 5), m
        102    1.177E+02                                 F               0         Z-component position of node 34 (blade 2, node 5), m
        103    1.603E+01                                 F               0         X-component position of node 35 (blade 2, node 6), m
        104   -1.053E+01                                 F               0         Y-component position of node 35 (blade 2, node 6), m
        105    1.140E+02                                 F               0         Z-component position of node 35 (blade 2, node 6), m
        106    1.499E+01                                 F               0         X-component position of node 36 (blade 2, node 7), m
        107   -1.082E+01                                 F               0         Y-component position of node 36 (blade 2, node 7), m
        108    1.102E+02                                 F               0         Z-component position of node 36 (blade 2, node 7), m
        109    1.396E+01                                 F               0         X-component position of node 37 (blade 2, node 8), m
        110   -1.112E+01                                 F               0         Y-component position of node 37 (blade 2, node 8), m
        111    1.065E+02                                 F               0         Z-component position of node 37 (blade 2, node 8), m
        112    1.292E+01                                 F               0         X-component position of node 38 (blade 2, node 9), m
        113   -1.141E+01                                 F               0         Y-component position of node 38 (blade 2, node 9), m
        114    1.028E+02                                 F               0         Z-component position of node 38 (blade 2, node 9), m
        115    1.189E+01                                 F               0         X-component position of node 39 (blade 2, node 10), m
        116   -1.170E+01                                 F               0         Y-component position of node 39 (blade 2, node 10), m
        117    9.910E+01                                 F               0         Z-component position of node 39 (blade 2, node 10), m
        118    1.085E+01                                 F               0         X-component position of node 40 (blade 2, node 11), m
        119   -1.200E+01                                 F               0         Y-component position of node 40 (blade 2, node 11), m
        120    9.539E+01                                 F               0         Z-component position of node 40 (blade 2, node 11), m
        121    9.816E+00                                 F               0         X-component position of node 41 (blade 2, node 12), m
        122   -1.229E+01                                 F               0         Y-component position of node 41 (blade 2, node 12), m
        123    9.167E+01                                 F               0         Z-component position of node 41 (blade 2, node 12), m
        124    8.781E+00                                 F               0         X-component position of node 42 (blade 2, node 13), m
        125   -1.258E+01                                 F               0         Y-component position of node 42 (blade 2, node 13), m
        126    8.796E+01                                 F               0         Z-component position of node 42 (blade 2, node 13), m
        127    7.745E+00                                 F               0         X-component position of node 43 (blade 2, node 14), m
        128   -1.288E+01                                 F               0         Y-component position of node 43 (blade 2, node 14), m
        129    8.424E+01                                 F               0         Z-component position of node 43 (blade 2, node 14), m
        130    6.710E+00                                 F               0         X-component position of node 44 (blade 2, node 15), m
        131   -1.317E+01                                 F               0         Y-component position of node 44 (blade 2, node 15), m
        132    8.053E+01                                 F               0         Z-component position of node 44 (blade 2, node 15), m
        133    5.674E+00                                 F               0         X-component position of node 45 (blade 2, node 16), m
        134   -1.347E+01                                 F               0         Y-component position of node 45 (blade 2, node 16), m
        135    7.681E+01                                 F               0         Z-component position of node 45 (blade 2, node 16), m
        136    4.639E+00                                 F               0         X-component position of node 46 (blade 2, node 17), m
        137   -1.376E+01                                 F               0         Y-component position of node 46 (blade 2, node 17), m
        138    7.310E+01                                 F               0         Z-component position of node 46 (blade 2, node 17), m
        139    3.603E+00                                 F               0         X-component position of node 47 (blade 2, node 18), m
        140   -1.405E+01                                 F               0         Y-component position of node 47 (blade 2, node 18), m
        141    6.938E+01                                 F               0         Z-component position of node 47 (blade 2, node 18), m
        142    2.568E+00                                 F               0         X-component position of node 48 (blade 2, node 19), m
        143   -1.435E+01                                 F               0         Y-component position of node 48 (blade 2, node 19), m
        144    6.567E+01                                 F               0         Z-component position of node 48 (blade 2, node 19), m
        145    1.532E+00                                 F               0         X-component position of node 49 (blade 2, node 20), m
        146   -1.464E+01                                 F               0         Y-component position of node 49 (blade 2, node 20), m
        147    6.195E+01                                 F               0         Z-component position of node 49 (blade 2, node 20), m
        148    4.966E-01                                 F               0         X-component position of node 50 (blade 2, node 21), m
        149   -1.493E+01                                 F               0         Y-component position of node 50 (blade 2, node 21), m
        150    5.824E+01                                 F               0         Z-component position of node 50 (blade 2, node 21), m
        151   -5.390E-01                                 F               0         X-component position of node 51 (blade 2, node 22), m
        152   -1.523E+01                                 F               0         Y-component position of node 51 (blade 2, node 22), m
        153    5.452E+01                                 F               0         Z-component position of node 51 (blade 2, node 22), m
        154   -1.574E+00                                 F               0         X-component position of node 52 (blade 2, node 23), m
        155   -1.552E+01                                 F               0         Y-component position of node 52 (blade 2, node 23), m
        156    5.081E+01                                 F               0         Z-component position of node 52 (blade 2, node 23), m
        157   -2.610E+00                                 F               0         X-component position of node 53 (blade 2, node 24), m
        158   -1.581E+01                                 F               0         Y-component position of node 53 (blade 2, node 24), m
        159    4.709E+01                                 F               0         Z-component position of node 53 (blade 2, node 24), m
        160   -3.645E+00                                 F               0         X-component position of node 54 (blade 2, node 25), m
        161   -1.611E+01                                 F               0         Y-component position of node 54 (blade 2, node 25), m
        162    4.338E+01                                 F               0         Z-component position of node 54 (blade 2, node 25), m
        163   -4.681E+00                                 F               0         X-component position of node 55 (blade 2, node 26), m
        164   -1.640E+01                                 F               0         Y-component position of node 55 (blade 2, node 26), m
        165    3.966E+01                                 F               0         Z-component position of node 55 (blade 2, node 26), m
        166   -5.717E+00                                 F               0         X-component position of node 56 (blade 2, node 27), m
        167   -1.669E+01                                 F               0         Y-component position of node 56 (blade 2, node 27), m
        168    3.595E+01                                 F               0         Z-component position of node 56 (blade 2, node 27), m
        169   -6.594E+00                                 F               0         X-component position of node 57 (blade 2, node 28), m
        170   -1.694E+01                                 F               0         Y-component position of node 57 (blade 2, node 28), m
        171    3.280E+01                                 F               0         Z-component position of node 57 (blade 2, node 28), m
        172    2.647E+01                                 F               0         X-component position of node 58 (blade 3, node 1), m
        173   -2.755E+00                                 F               0         Y-component position of node 58 (blade 3, node 1), m
        174    1.515E+02                                 F               0         Z-component position of node 58 (blade 3, node 1), m
        175    2.662E+01                                 F               0         X-component position of node 59 (blade 3, node 2), m
        176   -1.552E+00                                 F               0         Y-component position of node 59 (blade 3, node 2), m
        177    1.520E+02                                 F               0         Z-component position of node 59 (blade 3, node 2), m
        178    2.870E+01                                 F               0         X-component position of node 60 (blade 3, node 3), m
        179    1.481E+01                                 F               0         Y-component position of node 60 (blade 3, node 3), m
        180    1.596E+02                                 F               0         Z-component position of node 60 (blade 3, node 3), m
        181    2.914E+01                                 F               0         X-component position of node 61 (blade 3, node 4), m
        182    1.830E+01                                 F               0         Y-component position of node 61 (blade 3, node 4), m
        183    1.612E+02                                 F               0         Z-component position of node 61 (blade 3, node 4), m
        184    2.958E+01                                 F               0         X-component position of node 62 (blade 3, node 5), m
        185    2.179E+01                                 F               0         Y-component position of node 62 (blade 3, node 5), m
        186    1.628E+02                                 F               0         Z-component position of node 62 (blade 3, node 5), m
        187    3.003E+01                                 F               0         X-component position of node 63 (blade 3, node 6), m
        188    2.527E+01                                 F               0         Y-component position of node 63 (blade 3, node 6), m
        189    1.644E+02                                 F               0         Z-component position of node 63 (blade 3, node 6), m
        190    3.047E+01                                 F               0         X-component position of node 64 (blade 3, node 7), m
        191    2.876E+01                                 F               0         Y-component position of node 64 (blade 3, node 7), m
        192    1.661E+02                                 F               0         Z-component position of node 64 (blade 3, node 7), m
        193    3.091E+01                                 F               0         X-component position of node 65 (blade 3, node 8), m
        194    3.225E+01                                 F               0         Y-component position of node 65 (blade 3, node 8), m
        195    1.677E+02                                 F               0         Z-component position of node 65 (blade 3, node 8), m
        196    3.135E+01                                 F               0         X-component position of node 66 (blade 3, node 9), m
        197    3.573E+01                                 F               0         Y-component position of node 66 (blade 3, node 9), m
        198    1.693E+02                                 F               0         Z-component position of node 66 (blade 3, node 9), m
        199    3.179E+01                                 F               0         X-component position of node 67 (blade 3, node 10), m
        200    3.922E+01                                 F               0         Y-component position of node 67 (blade 3, node 10), m
        201    1.709E+02                                 F               0         Z-component position of node 67 (blade 3, node 10), m
        202    3.224E+01                                 F               0         X-component position of node 68 (blade 3, node 11), m
        203    4.271E+01                                 F               0         Y-component position of node 68 (blade 3, node 11), m
        204    1.725E+02                                 F               0         Z-component position of node 68 (blade 3, node 11), m
        205    3.268E+01                                 F               0         X-component position of node 69 (blade 3, node 12), m
        206    4.619E+01                                 F               0         Y-component position of node 69 (blade 3, node 12), m
        207    1.741E+02                                 F               0         Z-component position of node 69 (blade 3, node 12), m
        208    3.312E+01                                 F               0         X-component position of node 70 (blade 3, node 13), m
        209    4.968E+01                                 F               0         Y-component position of node 70 (blade 3, node 13), m
        210    1.757E+02                                 F               0         Z-component position of node 70 (blade 3, node 13), m
        211    3.356E+01                                 F               0         X-component position of node 71 (blade 3, node 14), m