<?xml version="1.0"?>
<VTKFile type="PolyData" version="0.1" byte_order="LittleEndian">
  <PolyData>
    <Piece NumberOfPoints="     28" NumberOfVerts="  0" NumberOfLines="     27"
           NumberOfStrips="  0" NumberOfPolys="      0">
      <Points>
        <DataArray type="Float32" NumberOfComponents="3" format="ascii">
                     -11.09005                       4.79778                     146.98535
                     -11.15982                       5.95384                     146.32156
                     -12.10854                      21.67428                     137.29507
                     -12.31067                      25.02363                     135.37192
                     -12.51284                      28.37359                     133.44841
                     -12.71497                      31.72294                     131.52525
                     -12.91710                      35.07230                     129.60210
                     -13.11927                      38.42226                     127.67860
                     -13.32141                      41.77161                     125.75544
                     -13.52354                      45.12096                     123.83228
                     -13.72567                      48.47031                     121.90913
                     -13.92784                      51.82028                     119.98563
                     -14.12997                      55.16963                     118.06247
                     -14.33210                      58.51898                     116.13931
                     -14.53427                      61.86894                     114.21581
                     -14.73640                      65.21829                     112.29265
                     -14.93853                      68.56765                     110.36949
                     -15.14067                      71.91700                     108.44633
                     -15.34283                      75.26696                     106.52283
                     -15.54497                      78.61631                     104.59968
                     -15.74710                      81.96567                     102.67652
                     -15.94927                      85.31563                     100.75301
                     -16.15140                      88.66498                      98.82986
                     -16.35353                      92.01434                      96.90670
                     -16.55566                      95.36369                      94.98354
                     -16.75783                      98.71365                      93.06004
                     -16.95996                     102.06300                      91.13688
                     -17.13133                     104.90253                      89.50646
        </DataArray>
      </Points>
      <PointData>
        <DataArray type="Float32" Name="Force" NumberOfComponents="3" format="ascii">
                       0.00000                       0.00000                       0.00000
                       0.00000                       0.00000                       0.00000
                       0.00000                       0.00000                       0.00000
                       0.00000                       0.00000                       0.00000
                       0.00000                       0.00000                       0.00000
                       0.00000                       0.00000                       0.00000
                       0.00000                       0.00000                       0.00000
                       0.00000                       0.00000                       0.00000
                       0.00000                       0.00000                       0.00000
                       0.00000                       0.00000                       0.00000
                       0.00000                       0.00000                       0.00000
                       0.00000                       0.00000                       0.00000
                       0.00000                       0.00000                       0.00000
                       0.00000                       0.00000                       0.00000
                       0.00000                       0.00000                       0.00000
                       0.00000                       0.00000                       0.00000
                       0.00000                       0.00000                       0.00000
                       0.00000                       0.00000                       0.00000
                       0.00000                       0.00000                       0.00000
                       0.00000                       0.00000                       0.00000
                       0.00000                       0.00000                       0.00000
                       0.00000                       0.00000                       0.00000
                       0.00000                       0.00000                       0.00000
                       0.00000                       0.00000                       0.00000
                       0.00000                       0.00000                       0.00000
                       0.00000                       0.00000                       0.00000
                       0.00000                       0.00000                       0.00000
                       0.00000                       0.00000                       0.00000
        </DataArray>
        <DataArray type="Float32" Name="Moment" NumberOfComponents="3" format="ascii">
                       0.00000                       0.00000                       0.00000
                       0.00000                       0.00000                       0.00000
                       0.00000                       0.00000                       0.00000
                       0.00000                       0.00000                       0.00000
                       0.00000                       0.00000                       0.00000
                       0.00000                       0.00000                       0.00000
                       0.00000                       0.00000                       0.00000
                       0.00000                       0.00000                       0.00000
                       0.00000                       0.00000                       0.00000
                       0.00000                       0.00000                       0.00000
                       0.00000                       0.00000                       0.00000
                       0.00000                       0.00000                       0.00000
                       0.00000                       0.00000                       0.00000
                       0.00000                       0.00000                       0.00000
                       0.00000                       0.00000                       0.00000
                       0.00000                       0.00000                       0.00000
                       0.00000                       0.00000                       0.00000
                       0.00000                       0.00000                       0.00000
                       0.00000                       0.00000                       0.00000
                       0.00000                       0.00000                       0.00000
                       0.00000                       0.00000                       0.00000
                       0.00000                       0.00000                       0.00000
                       0.00000                       0.00000                       0.00000
                       0.00000                       0.00000                       0.00000
                       0.00000                       0.00000                       0.00000
                       0.00000                       0.00000                       0.00000
                       0.00000                       0.00000                       0.00000
                       0.00000                       0.00000                       0.00000
        </DataArray>
        <DataArray type="Float32" Name="TranslationalVelocity" NumberOfComponents="3" format="ascii">
                       0.00000                       0.00000                       0.00000
                       0.00000                       0.00000                       0.00000
                       0.00000                       0.00000                       0.00000
                       0.00000                       0.00000                       0.00000
                       0.00000                       0.00000                       0.00000
                       0.00000                       0.00000                       0.00000
                       0.00000                       0.00000                       0.00000
                       0.00000                       0.00000                       0.00000
                       0.00000                       0.00000                       0.00000
                       0.00000                       0.00000                       0.00000
                       0.00000                       0.00000                       0.00000
                       0.00000                       0.00000                       0.00000
                       0.00000                       0.00000                       0.00000
                       0.00000                       0.00000                       0.00000
                       0.00000                       0.00000                       0.00000
                       0.00000                       0.00000                       0.00000
                       0.00000                       0.00000                       0.00000
                       0.00000                       0.00000                       0.00000
                       0.00000                       0.00000                       0.00000
                       0.00000                       0.00000                       0.00000
                       0.00000                       0.00000                       0.00000
                       0.00000                       0.00000                       0.00000
                       0.00000                       0.00000                       0.00000
                       0.00000                       0.00000                       0.00000
                       0.00000                       0.00000                       0.00000
                       0.00000                       0.00000                       0.00000
                       0.00000                       0.00000                       0.00000
                       0.00000                       0.00000                       0.00000
        </DataArray>
        <DataArray type="Float32" Name="RotationalVelocity" NumberOfComponents="3" format="ascii">
                       0.00000                       0.00000                       0.00000
                       0.00000                       0.00000                       0.00000
                       0.00000                       0.00000                       0.00000
                       0.00000                       0.00000                       0.00000
                       0.00000                       0.00000                       0.00000
                       0.00000                       0.00000                       0.00000
                       0.00000                       0.00000                       0.00000
                       0.00000                       0.00000                       0.00000
                       0.00000                       0.00000                       0.00000
                       0.00000                       0.00000                       0.00000
                       0.00000                       0.00000                       0.00000
                       0.00000                       0.00000                       0.00000
                       0.00000                       0.00000                       0.00000
                       0.00000                       0.00000                       0.00000
                       0.00000                       0.00000                       0.00000
                       0.00000                       0.00000                       0.00000
                       0.00000                       0.00000                       0.00000
                       0.00000                       0.00000                       0.00000
                       0.00000                       0.00000                       0.00000
                       0.00000                       0.00000                       0.00000
                       0.00000                       0.00000                       0.00000
                       0.00000                       0.00000                       0.00000
                       0.00000                       0.00000                       0.00000
                       0.00000                       0.00000                       0.00000
                       0.00000                       0.00000                       0.00000
                       0.00000                       0.00000                       0.00000
                       0.00000                       0.00000                       0.00000
                       0.00000                       0.00000                       0.00000
        </DataArray>
        <DataArray type="Float32" Name="TranslationalAcceleration" NumberOfComponents="3" format="ascii">
                       0.00000                       0.00000                       0.00000
                       0.00000                       0.00000                       0.00000
                       0.00000                       0.00000                       0.00000
                       0.00000                       0.00000                       0.00000
                       0.00000                       0.00000                       0.00000
                       0.00000                       0.00000                       0.00000
                       0.00000                       0.00000                       0.00000
                       0.00000                       0.00000                       0.00000
                       0.00000                       0.00000                       0.00000
                       0.00000                       0.00000                       0.00000
                       0.00000                       0.00000                       0.00000
                       0.00000                       0.00000                       0.00000
                       0.00000                       0.00000                       0.00000
                       0.00000                       0.00000                       0.00000
                       0.00000                       0.00000                       0.00000
                       0.00000                       0.00000                       0.00000
                       0.00000                       0.00000                       0.00000
                       0.00000                       0.00000                       0.00000
                       0.00000                       0.00000                       0.00000
                       0.00000                       0.00000                       0.00000
                       0.00000                       0.00000                       0.00000
                       0.00000                       0.00000                       0.00000
                       0.00000                       0.00000                       0.00000
                       0.00000                       0.00000                       0.00000
                       0.00000                       0.00000                       0.00000
                       0.00000                       0.00000                       0.00000
                       0.00000                       0.00000                       0.00000
                       0.00000                       0.00000                       0.00000
        </DataArray>
        <DataArray type="Float32" Name="OrientationX" NumberOfComponents="3" format="ascii">
                       0.92638                       0.22801                       0.29973
                       0.92638                       0.22801                       0.29973
                       0.98838                       0.11604                       0.09822
                       0.99352                       0.09540                       0.06173
                       0.99632                       0.07908                       0.03301
                       0.99777                       0.06596                       0.01000
                       0.99844                       0.05513                      -0.00893
                       0.99863                       0.04610                      -0.02468
                       0.99854                       0.03845                      -0.03799
                       0.99827                       0.03183                      -0.04949
                       0.99790                       0.02617                      -0.05931
                       0.99747                       0.02120                      -0.06792
                       0.99701                       0.01684                      -0.07546
                       0.99653                       0.01291                      -0.08225
                       0.99605                       0.00942                      -0.08828
                       0.99558                       0.00628                      -0.09370
                       0.99513                       0.00349                      -0.09851
                       0.99468                       0.00087                      -0.10303
                       0.99425                      -0.00148                      -0.10708
                       0.99385                      -0.00358                      -0.11069
                       0.99345                      -0.00558                      -0.11414
                       0.99307                      -0.00742                      -0.11729
                       0.99272                      -0.00908                      -0.12014
                       0.99237                      -0.01065                      -0.12284
                       0.99203                      -0.01213                      -0.12539
                       0.99173                      -0.01344                      -0.12764
                       0.99142                      -0.01475                      -0.12988
                       0.99125                      -0.01544                      -0.13108
        </DataArray>
        <DataArray type="Float32" Name="OrientationY" NumberOfComponents="3" format="ascii">
                       0.37295                      -0.44499                      -0.81418
                       0.37295                      -0.44499                      -0.81418
                       0.14276                      -0.48635                      -0.86202
                       0.10090                      -0.49081                      -0.86540
                       0.06791                      -0.49371                      -0.86697
                       0.04145                      -0.49563                      -0.86754
                       0.01968                      -0.49695                      -0.86756
                       0.00155                      -0.49787                      -0.86725
                      -0.01378                      -0.49852                      -0.86677
                      -0.02703                      -0.49899                      -0.86619
                      -0.03835                      -0.49931                      -0.86557
                      -0.04828                      -0.49955                      -0.86494
                      -0.05698                      -0.49972                      -0.86431
                      -0.06481                      -0.49983                      -0.86369
                      -0.07176                      -0.49991                      -0.86310
                      -0.07802                      -0.49996                      -0.86253
                      -0.08358                      -0.49999                      -0.86199
                      -0.08879                      -0.50000                      -0.86146
                      -0.09347                      -0.50000                      -0.86097
                      -0.09764                      -0.49999                      -0.86051
                      -0.10163                      -0.49997                      -0.86006
                      -0.10527                      -0.49994                      -0.85964
                      -0.10856                      -0.49992                      -0.85924
                      -0.11168                      -0.49989                      -0.85886
                      -0.11462                      -0.49985                      -0.85849
                      -0.11722                      -0.49982                      -0.85816
                      -0.11982                      -0.49978                      -0.85782
                      -0.12120                      -0.49976                      -0.85764
        </DataArray>
        <DataArray type="Float32" Name="OrientationZ" NumberOfComponents="3" format="ascii">
                      -0.05226                       0.86603                      -0.49726
                      -0.05226                       0.86603                      -0.49726
                      -0.05226                       0.86603                      -0.49726
                      -0.05226                       0.86603                      -0.49726
                      -0.05226                       0.86603                      -0.49726
                      -0.05226                       0.86603                      -0.49726
                      -0.05226                       0.86603                      -0.49726
                      -0.05226                       0.86603                      -0.49726
                      -0.05226                       0.86603                      -0.49726
                      -0.05226                       0.86603                      -0.49726
                      -0.05226                       0.86603                      -0.49726
                      -0.05226                       0.86603                      -0.49726
                      -0.05226                       0.86603                      -0.49726
                      -0.05226                       0.86603                      -0.49726
                      -0.05226                       0.86603                      -0.49726
                      -0.05226                       0.86603                      -0.49726
                      -0.05226                       0.86603                      -0.49726
                      -0.05226                       0.86603                      -0.49726
                      -0.05226                       0.86603                      -0.49726
                      -0.05226                       0.86603                      -0.49726
                      -0.05226                       0.86603                      -0.49726
                      -0.05226                       0.86603                      -0.49726
                      -0.05226                       0.86603                      -0.49726
                      -0.05226                       0.86603                      -0.49726
                      -0.05226                       0.86603                      -0.49726
                      -0.05226                       0.86603                      -0.49726
                      -0.05226                       0.86603                      -0.49726
                      -0.05226                       0.86603                      -0.49726
        </DataArray>
      </PointData>
      <Lines>
        <DataArray type="Int32" Name="connectivity" format="ascii">
      0      1
      1      2
      2      3
      3      4
      4      5
      5      6
      6      7
      7      8
      8      9
      9     10
     10     11
     11     12
     12     13
     13     14
     14     15
     15     16
     16     17
     17     18
     18     19
     19     20
     20     21
     21     22
     22     23
     23     24
     24     25
     25     26
     26     27
        </DataArray>
        <DataArray type="Int32" Name="offsets" format="ascii">
      2
      4
      6
      8
     10
     12
     14
     16
     18
     20
     22
     24
     26
     28
     30
     32
     34
     36
     38
     40
     42
     44
     46
     48
     50
     52
     54
        </DataArray>
      </Lines>
    </Piece>
  </PolyData>
</VTKFile>
