<?xml version="1.0"?>
<VTKFile type="PolyData" version="0.1" byte_order="LittleEndian">
  <PolyData>
    <Piece NumberOfPoints="    102" NumberOfVerts="  0" NumberOfLines="    101"
           NumberOfStrips="  0" NumberOfPolys="      0">
      <Points>
        <DataArray type="Float32" NumberOfComponents="3" format="ascii">
                     -10.16085                       0.00000                     155.82616
                     -10.03970                       0.00000                     156.97881
                      -9.91855                       0.00000                     158.13145
                      -9.79740                       0.00000                     159.28410
                      -9.67625                       0.00000                     160.43675
                      -9.55510                       0.00000                     161.58942
                      -9.43395                       0.00000                     162.74207
                      -9.31281                       0.00000                     163.89471
                      -9.19166                       0.00000                     165.04736
                      -9.07051                       0.00000                     166.20001
                      -8.94936                       0.00000                     167.35266
                      -8.82821                       0.00000                     168.50531
                      -8.70706                       0.00000                     169.65797
                      -8.58591                       0.00000                     170.81062
                      -8.46477                       0.00000                     171.96327
                      -8.34362                       0.00000                     173.11592
                      -8.22247                       0.00000                     174.26857
                      -8.10132                       0.00000                     175.42122
                      -7.98017                       0.00000                     176.57387
                      -7.85902                       0.00000                     177.72653
                      -7.73787                       0.00000                     178.87918
                      -7.61673                       0.00000                     180.03183
                      -7.49558                       0.00000                     181.18448
                      -7.37443                       0.00000                     182.33713
                      -7.25328                       0.00000                     183.48978
                      -7.13213                       0.00000                     184.64244
                      -7.01098                       0.00000                     185.79509
                      -6.88984                       0.00000                     186.94774
                      -6.76869                       0.00000                     188.10039
                      -6.64754                       0.00000                     189.25304
                      -6.52639                       0.00000                     190.40569
                      -6.40524                       0.00000                     191.55833
                      -6.28409                       0.00000                     192.71098
                      -6.16294                       0.00000                     193.86365
                      -6.04180                       0.00000                     195.01630
                      -5.92065                       0.00000                     196.16895
                      -5.79950                       0.00000                     197.32159
                      -5.67835                       0.00000                     198.47424
                      -5.55720                       0.00000                     199.62689
                      -5.43605                       0.00000                     200.77956
                      -5.31490                       0.00000                     201.93221
                      -5.19376                       0.00000                     203.08485
                      -5.07261                       0.00000                     204.23750
                      -4.95146                       0.00000                     205.39015
                      -4.83031                       0.00000                     206.54280
                      -4.70916                       0.00000                     207.69545
                      -4.58801                       0.00000                     208.84811
                      -4.46687                       0.00000                     210.00076
                      -4.34572                       0.00000                     211.15341
                      -4.22457                       0.00000                     212.30606
                      -4.10342                       0.00000                     213.45871
                      -3.98227                       0.00000                     214.61136
                      -3.86112                       0.00000                     215.76402
                      -3.73997                       0.00000                     216.91667
                      -3.61883                       0.00000                     218.06932
                      -3.49768                       0.00000                     219.22197
                      -3.37653                       0.00000                     220.37462
                      -3.25538                       0.00000                     221.52727
                      -3.13423                       0.00000                     222.67992
                      -3.01308                       0.00000                     223.83257
                      -2.89194                       0.00000                     224.98521
                      -2.77079                       0.00000                     226.13785
                      -2.64964                       0.00000                     227.29050
                      -2.52849                       0.00000                     228.44315
                      -2.40734                       0.00000                     229.59579
                      -2.28620                       0.00000                     230.74844
                      -2.16505                       0.00000                     231.90109
                      -2.04390                       0.00000                     233.05374
                      -1.92275                       0.00000                     234.20639
                      -1.80160                       0.00000                     235.35904
                      -1.68045                       0.00000                     236.51169
                      -1.55931                       0.00000                     237.66432
                      -1.43816                       0.00000                     238.81697
                      -1.31701                       0.00000                     239.96962
                      -1.19586                       0.00000                     241.12227
                      -1.07471                       0.00000                     242.27492
                      -0.95357                       0.00000                     243.42757
                      -0.83242                       0.00000                     244.58022
                      -0.71127                       0.00000                     245.73286
                      -0.59012                       0.00000                     246.88551
                      -0.46897                       0.00000                     248.03816
                      -0.34783                       0.00000                     249.19081
                      -0.22668                       0.00000                     250.34344
                      -0.10553                       0.00000                     251.49609
                       0.01562                       0.00000                     252.64874
                       0.13677                       0.00000                     253.80139
                       0.25792                       0.00000                     254.95404
                       0.37906                       0.00000                     256.10669
                       0.50021                       0.00000                     257.25934
                       0.62136                       0.00000                     258.41199
                       0.74251                       0.00000                     259.56464
                       0.86366                       0.00000                     260.71729
                       0.98480                       0.00000                     261.86993
                       1.10595                       0.00000                     263.02258
                       1.22710                       0.00000                     264.17523
                       1.34825                       0.00000                     265.32788
                       1.46940                       0.00000                     266.48053
                       1.59054                       0.00000                     267.63318
                       1.71169                       0.00000                     268.78580
                       1.83284                       0.00000                     269.93845
                       1.89343                       0.00000                     270.51492
                     -10.22142                       0.00000                     155.24983
        </DataArray>
      </Points>
      <PointData>
        <DataArray type="Float32" Name="RefOrientationX" NumberOfComponents="3" format="ascii">
                       0.88510                      -0.45601                      -0.09303
                       0.88747                      -0.45132                      -0.09328
                       0.89421                      -0.43766                      -0.09399
                       0.90075                      -0.42390                      -0.09467
                       0.90707                      -0.41004                      -0.09534
                       0.91317                      -0.39611                      -0.09598
                       0.91906                      -0.38210                      -0.09660
                       0.92473                      -0.36801                      -0.09719
                       0.93019                      -0.35383                      -0.09777
                       0.93544                      -0.33955                      -0.09832
                       0.94048                      -0.32517                      -0.09885
                       0.94530                      -0.31071                      -0.09935
                       0.94990                      -0.29618                      -0.09984
                       0.95428                      -0.28158                      -0.10030
                       0.95844                      -0.26692                      -0.10074
                       0.96238                      -0.25219                      -0.10115
                       0.96609                      -0.23741                      -0.10154
                       0.96920                      -0.22421                      -0.10187
                       0.97194                      -0.21189                      -0.10215
                       0.97452                      -0.19954                      -0.10243
                       0.97680                      -0.18794                      -0.10267
                       0.97860                      -0.17820                      -0.10286
                       0.98031                      -0.16843                      -0.10304
                       0.98193                      -0.15866                      -0.10320
                       0.98316                      -0.15072                      -0.10333
                       0.98432                      -0.14288                      -0.10346
                       0.98541                      -0.13503                      -0.10357
                       0.98634                      -0.12801                      -0.10367
                       0.98715                      -0.12154                      -0.10375
                       0.98792                      -0.11507                      -0.10383
                       0.98861                      -0.10887                      -0.10391
                       0.98918                      -0.10347                      -0.10397
                       0.98973                      -0.09808                      -0.10402
                       0.99024                      -0.09268                      -0.10408
                       0.99066                      -0.08803                      -0.10412
                       0.99105                      -0.08346                      -0.10416
                       0.99142                      -0.07888                      -0.10420
                       0.99175                      -0.07466                      -0.10424
                       0.99203                      -0.07071                      -0.10427
                       0.99230                      -0.06675                      -0.10430
                       0.99255                      -0.06292                      -0.10432
                       0.99276                      -0.05954                      -0.10434
                       0.99295                      -0.05615                      -0.10436
                       0.99314                      -0.05277                      -0.10438
                       0.99329                      -0.04974                      -0.10440
                       0.99343                      -0.04677                      -0.10441
                       0.99357                      -0.04380                      -0.10443
                       0.99368                      -0.04103                      -0.10444
                       0.99379                      -0.03842                      -0.10445
                       0.99388                      -0.03581                      -0.10446
                       0.99397                      -0.03325                      -0.10447
                       0.99405                      -0.03091                      -0.10448
                       0.99412                      -0.02856                      -0.10449
                       0.99418                      -0.02622                      -0.10449
                       0.99423                      -0.02409                      -0.10450
                       0.99428                      -0.02200                      -0.10450
                       0.99432                      -0.01991                      -0.10451
                       0.99436                      -0.01793                      -0.10451
                       0.99439                      -0.01605                      -0.10451
                       0.99442                      -0.01418                      -0.10452
                       0.99445                      -0.01233                      -0.10452
                       0.99447                      -0.01066                      -0.10452
                       0.99448                      -0.00899                      -0.10452
                       0.99450                      -0.00732                      -0.10453
                       0.99451                      -0.00573                      -0.10453
                       0.99451                      -0.00417                      -0.10453
                       0.99452                      -0.00260                      -0.10453
                       0.99452                      -0.00111                      -0.10453
                       0.99452                       0.00030                      -0.10453
                       0.99452                       0.00171                      -0.10453
                       0.99452                       0.00310                      -0.10453
                       0.99451                       0.00435                      -0.10453
                       0.99451                       0.00560                      -0.10453
                       0.99450                       0.00685                      -0.10453
                       0.99449                       0.00807                      -0.10453
                       0.99448                       0.00927                      -0.10452
                       0.99447                       0.01047                      -0.10452
                       0.99445                       0.01162                      -0.10452
                       0.99444                       0.01272                      -0.10452
                       0.99443                       0.01381                      -0.10452
                       0.99441                       0.01490                      -0.10452
                       0.99440                       0.01589                      -0.10452
                       0.99438                       0.01688                      -0.10451
                       0.99436                       0.01787                      -0.10451
                       0.99435                       0.01883                      -0.10451
                       0.99433                       0.01977                      -0.10451
                       0.99431                       0.02070                      -0.10451
                       0.99429                       0.02162                      -0.10450
                       0.99427                       0.02251                      -0.10450
                       0.99425                       0.02340                      -0.10450
                       0.99423                       0.02428                      -0.10450
                       0.99421                       0.02506                      -0.10450
                       0.99419                       0.02584                      -0.10449
                       0.99417                       0.02663                      -0.10449
                       0.99415                       0.02741                      -0.10449
                       0.99413                       0.02819                      -0.10449
                       0.99410                       0.02897                      -0.10448
                       0.99408                       0.02966                      -0.10448
                       0.99407                       0.03015                      -0.10448
                       0.99405                       0.03064                      -0.10448
                       0.99405                       0.03089                      -0.10448
                       0.88510                      -0.45601                      -0.09303
        </DataArray>
        <DataArray type="Float32" Name="RefOrientationY" NumberOfComponents="3" format="ascii">
                       0.45351                       0.88997                      -0.04767
                       0.44885                       0.89236                      -0.04718
                       0.43527                       0.89914                      -0.04575
                       0.42158                       0.90571                      -0.04431
                       0.40780                       0.91207                      -0.04286
                       0.39394                       0.91820                      -0.04140
                       0.38001                       0.92412                      -0.03994
                       0.36599                       0.92982                      -0.03847
                       0.35189                       0.93531                      -0.03699
                       0.33769                       0.94059                      -0.03549
                       0.32338                       0.94566                      -0.03399
                       0.30901                       0.95051                      -0.03248
                       0.29456                       0.95513                      -0.03096
                       0.28004                       0.95954                      -0.02943
                       0.26546                       0.96372                      -0.02790
                       0.25081                       0.96768                      -0.02636
                       0.23611                       0.97141                      -0.02482
                       0.22298                       0.97454                      -0.02344
                       0.21073                       0.97729                      -0.02215
                       0.19844                       0.97989                      -0.02086
                       0.18691                       0.98218                      -0.01964
                       0.17722                       0.98400                      -0.01863
                       0.16751                       0.98571                      -0.01761
                       0.15779                       0.98733                      -0.01658
                       0.14990                       0.98858                      -0.01575
                       0.14210                       0.98974                      -0.01494
                       0.13429                       0.99084                      -0.01411
                       0.12731                       0.99177                      -0.01338
                       0.12088                       0.99259                      -0.01270
                       0.11444                       0.99336                      -0.01203
                       0.10827                       0.99406                      -0.01138
                       0.10291                       0.99463                      -0.01082
                       0.09754                       0.99518                      -0.01025
                       0.09217                       0.99570                      -0.00969
                       0.08755                       0.99612                      -0.00920
                       0.08300                       0.99651                      -0.00872
                       0.07845                       0.99688                      -0.00825
                       0.07425                       0.99721                      -0.00780
                       0.07032                       0.99750                      -0.00739
                       0.06639                       0.99777                      -0.00698
                       0.06258                       0.99802                      -0.00658
                       0.05921                       0.99823                      -0.00622
                       0.05584                       0.99842                      -0.00587
                       0.05248                       0.99861                      -0.00552
                       0.04947                       0.99876                      -0.00520
                       0.04652                       0.99891                      -0.00489
                       0.04356                       0.99904                      -0.00458
                       0.04080                       0.99916                      -0.00429
                       0.03821                       0.99926                      -0.00402
                       0.03562                       0.99936                      -0.00374
                       0.03307                       0.99945                      -0.00348
                       0.03074                       0.99952                      -0.00323
                       0.02841                       0.99959                      -0.00299
                       0.02607                       0.99966                      -0.00274
                       0.02395                       0.99971                      -0.00252
                       0.02188                       0.99976                      -0.00230
                       0.01981                       0.99980                      -0.00208
                       0.01783                       0.99984                      -0.00187
                       0.01596                       0.99987                      -0.00168
                       0.01410                       0.99990                      -0.00148
                       0.01226                       0.99992                      -0.00129
                       0.01060                       0.99994                      -0.00111
                       0.00894                       0.99996                      -0.00094
                       0.00728                       0.99997                      -0.00077
                       0.00570                       0.99998                      -0.00060
                       0.00415                       0.99999                      -0.00044
                       0.00259                       1.00000                      -0.00027
                       0.00110                       1.00000                      -0.00012
                      -0.00030                       1.00000                       0.00003
                      -0.00170                       1.00000                       0.00018
                      -0.00308                       1.00000                       0.00032
                      -0.00433                       0.99999                       0.00045
                      -0.00557                       0.99998                       0.00059
                      -0.00682                       0.99998                       0.00072
                      -0.00802                       0.99997                       0.00084
                      -0.00922                       0.99996                       0.00097
                      -0.01041                       0.99995                       0.00109
                      -0.01156                       0.99993                       0.00121
                      -0.01265                       0.99992                       0.00133
                      -0.01374                       0.99990                       0.00144
                      -0.01482                       0.99989                       0.00156
                      -0.01580                       0.99987                       0.00166
                      -0.01679                       0.99986                       0.00176
                      -0.01778                       0.99984                       0.00187
                      -0.01872                       0.99982                       0.00197
                      -0.01966                       0.99980                       0.00207
                      -0.02059                       0.99979                       0.00216
                      -0.02151                       0.99977                       0.00226
                      -0.02239                       0.99975                       0.00235
                      -0.02327                       0.99973                       0.00245
                      -0.02415                       0.99971                       0.00254
                      -0.02492                       0.99969                       0.00262
                      -0.02570                       0.99967                       0.00270
                      -0.02648                       0.99965                       0.00278
                      -0.02726                       0.99962                       0.00286
                      -0.02804                       0.99960                       0.00295
                      -0.02881                       0.99958                       0.00303
                      -0.02950                       0.99956                       0.00310
                      -0.02998                       0.99955                       0.00315
                      -0.03047                       0.99953                       0.00320
                      -0.03072                       0.99952                       0.00323
                       0.45351                       0.88997                      -0.04767
        </DataArray>
        <DataArray type="Float32" Name="RefOrientationZ" NumberOfComponents="3" format="ascii">
                       0.10453                       0.00000                       0.99452
                       0.10453                       0.00000                       0.99452
                       0.10453                       0.00000                       0.99452
                       0.10453                       0.00000                       0.99452
                       0.10453                       0.00000                       0.99452
                       0.10453                       0.00000                       0.99452
                       0.10453                       0.00000                       0.99452
                       0.10453                       0.00000                       0.99452
                       0.10453                       0.00000                       0.99452
                       0.10453                       0.00000                       0.99452
                       0.10453                       0.00000                       0.99452
                       0.10453                       0.00000                       0.99452
                       0.10453                       0.00000                       0.99452
                       0.10453                       0.00000                       0.99452
                       0.10453                       0.00000                       0.99452