<?xml version="1.0"?>
<VTKFile type="PolyData" version="0.1" byte_order="LittleEndian">
  <PolyData>
    <Piece NumberOfPoints="    102" NumberOfVerts="  0" NumberOfLines="    101"
           NumberOfStrips="  0" NumberOfPolys="      0">
      <Points>
        <DataArray type="Float32" NumberOfComponents="3" format="ascii">
                     -11.12034                       5.29964                     146.69719
                     -11.18091                       6.30337                     146.12086
                     -11.24149                       7.30709                     145.54454
                     -11.30206                       8.31081                     144.96822
                     -11.36264                       9.31454                     144.39189
                     -11.42321                      10.31826                     143.81557
                     -11.48378                      11.32198                     143.23924
                     -11.54436                      12.32571                     142.66292
                     -11.60493                      13.32943                     142.08659
                     -11.66551                      14.33315                     141.51025
                     -11.72608                      15.33688                     140.93393
                     -11.78666                      16.34060                     140.35760
                     -11.84723                      17.34433                     139.78128
                     -11.90780                      18.34805                     139.20496
                     -11.96838                      19.35177                     138.62863
                     -12.02895                      20.35550                     138.05231
                     -12.08953                      21.35922                     137.47598
                     -12.15010                      22.36294                     136.89966
                     -12.21068                      23.36667                     136.32333
                     -12.27125                      24.37039                     135.74701
                     -12.33182                      25.37411                     135.17068
                     -12.39240                      26.37784                     134.59436
                     -12.45297                      27.38156                     134.01802
                     -12.51355                      28.38529                     133.44170
                     -12.57412                      29.38901                     132.86537
                     -12.63470                      30.39273                     132.28905
                     -12.69527                      31.39646                     131.71272
                     -12.75584                      32.40018                     131.13640
                     -12.81642                      33.40390                     130.56007
                     -12.87699                      34.40763                     129.98375
                     -12.93757                      35.41135                     129.40742
                     -12.99814                      36.41507                     128.83110
                     -13.05871                      37.41880                     128.25478
                     -13.11929                      38.42252                     127.67844
                     -13.17986                      39.42625                     127.10212
                     -13.24044                      40.42997                     126.52579
                     -13.30101                      41.43369                     125.94947
                     -13.36159                      42.43742                     125.37315
                     -13.42216                      43.44114                     124.79682
                     -13.48273                      44.44487                     124.22049
                     -13.54331                      45.44859                     123.64417
                     -13.60388                      46.45231                     123.06784
                     -13.66446                      47.45604                     122.49152
                     -13.72503                      48.45976                     121.91519
                     -13.78561                      49.46349                     121.33887
                     -13.84618                      50.46721                     120.76254
                     -13.90675                      51.47093                     120.18621
                     -13.96733                      52.47466                     119.60989
                     -14.02790                      53.47838                     119.03356
                     -14.08848                      54.48210                     118.45724
                     -14.14905                      55.48583                     117.88091
                     -14.20963                      56.48955                     117.30459
                     -14.27020                      57.49327                     116.72826
                     -14.33077                      58.49700                     116.15193
                     -14.39135                      59.50072                     115.57561
                     -14.45192                      60.50444                     114.99928
                     -14.51250                      61.50817                     114.42296
                     -14.57307                      62.51189                     113.84663
                     -14.63365                      63.51561                     113.27031
                     -14.69422                      64.51933                     112.69398
                     -14.75479                      65.52305                     112.11767
                     -14.81537                      66.52677                     111.54134
                     -14.87594                      67.53049                     110.96502
                     -14.93652                      68.53421                     110.38869
                     -14.99709                      69.53793                     109.81237
                     -15.05766                      70.54165                     109.23605
                     -15.11824                      71.54537                     108.65972
                     -15.17881                      72.54910                     108.08340
                     -15.23939                      73.55281                     107.50707
                     -15.29996                      74.55653                     106.93075
                     -15.36053                      75.56026                     106.35442
                     -15.42111                      76.56397                     105.77811
                     -15.48168                      77.56770                     105.20178
                     -15.54226                      78.57141                     104.62546
                     -15.60283                      79.57513                     104.04913
                     -15.66340                      80.57886                     103.47281
                     -15.72398                      81.58257                     102.89648
                     -15.78455                      82.58630                     102.32016
                     -15.84513                      83.59002                     101.74384
                     -15.90570                      84.59373                     101.16751
                     -15.96627                      85.59746                     100.59119
                     -16.02685                      86.60118                     100.01487
                     -16.08742                      87.60490                      99.43855
                     -16.14800                      88.60862                      98.86222
                     -16.20857                      89.61234                      98.28590
                     -16.26914                      90.61606                      97.70957
                     -16.32972                      91.61978                      97.13325
                     -16.39029                      92.62350                      96.55692
                     -16.45087                      93.62722                      95.98060
                     -16.51144                      94.63094                      95.40427
                     -16.57202                      95.63467                      94.82795
                     -16.63259                      96.63838                      94.25163
                     -16.69316                      97.64211                      93.67531
                     -16.75374                      98.64582                      93.09898
                     -16.81431                      99.64954                      92.52266
                     -16.87489                     100.65327                      91.94633
                     -16.93546                     101.65698                      91.37001
                     -16.99603                     102.66071                      90.79369
                     -17.05661                     103.66443                      90.21736
                     -17.11718                     104.66814                      89.64104
                     -17.14748                     105.17013                      89.35281
                     -11.09005                       4.79778                     146.98535
        </DataArray>
      </Points>
      <PointData>
        <DataArray type="Float32" Name="TranslationalVelocity" NumberOfComponents="3" format="ascii">
                       0.00000                       0.00000                       0.00000
                       0.00000                       0.00000                       0.00000
                       0.00000                       0.00000                       0.00000
                       0.00000                       0.00000                       0.00000
                       0.00000                       0.00000                       0.00000
                       0.00000                       0.00000                       0.00000
                       0.00000                       0.00000                       0.00000
                       0.00000                       0.00000                       0.00000
                       0.00000                       0.00000                       0.00000
                       0.00000                       0.00000                       0.00000
                       0.00000                       0.00000                       0.00000
                       0.00000                       0.00000                       0.00000
                       0.00000                       0.00000                       0.00000
                       0.00000                       0.00000                       0.00000
                       0.00000                       0.00000                       0.00000
                       0.00000                       0.00000                       0.00000
                       0.00000                       0.00000                       0.00000
                       0.00000                       0.00000                       0.00000
                       0.00000                       0.00000                       0.00000
                       0.00000                       0.00000                       0.00000
                       0.00000                       0.00000                       0.00000
                       0.00000                       0.00000                       0.00000
                       0.00000                       0.00000                       0.00000
                       0.00000                       0.00000                       0.00000
                       0.00000                       0.00000                       0.00000
                       0.00000                       0.00000                       0.00000
                       0.00000                       0.00000                       0.00000
                       0.00000                       0.00000                       0.00000
                       0.00000                       0.00000                       0.00000
                       0.00000                       0.00000                       0.00000
                       0.00000                       0.00000                       0.00000
                       0.00000                       0.00000                       0.00000
                       0.00000                       0.00000                       0.00000
                       0.00000                       0.00000                       0.00000
                       0.00000                       0.00000                       0.00000
                       0.00000                       0.00000                       0.00000
                       0.00000                       0.00000                       0.00000
                       0.00000                       0.00000                       0.00000
                       0.00000                       0.00000                       0.00000
                       0.00000                       0.00000                       0.00000
                       0.00000                       0.00000                       0.00000
                       0.00000                       0.00000                       0.00000
                       0.00000                       0.00000                       0.00000
                       0.00000                       0.00000                       0.00000
                       0.00000                       0.00000                       0.00000
                       0.00000                       0.00000                       0.00000
                       0.00000                       0.00000                       0.00000
                       0.00000                       0.00000                       0.00000
                       0.00000                       0.00000                       0.00000
                       0.00000                       0.00000                       0.00000
                       0.00000                       0.00000                       0.00000
                       0.00000                       0.00000                       0.00000
                       0.00000                       0.00000                       0.00000
                       0.00000                       0.00000                       0.00000
                       0.00000                       0.00000                       0.00000
                       0.00000                       0.00000                       0.00000
                       0.00000                       0.00000                       0.00000
                       0.00000                       0.00000                       0.00000
                       0.00000                       0.00000                       0.00000
                       0.00000                       0.00000                       0.00000
                       0.00000                       0.00000                       0.00000
                       0.00000                       0.00000                       0.00000
                       0.00000                       0.00000                       0.00000
                       0.00000                       0.00000                       0.00000
                       0.00000                       0.00000                       0.00000
                       0.00000                       0.00000                       0.00000
                       0.00000                       0.00000                       0.00000
                       0.00000                       0.00000                       0.00000
                       0.00000                       0.00000                       0.00000
                       0.00000                       0.00000                       0.00000
                       0.00000                       0.00000                       0.00000
                       0.00000                       0.00000                       0.00000
                       0.00000                       0.00000                       0.00000
                       0.00000                       0.00000                       0.00000
                       0.00000                       0.00000                       0.00000
                       0.00000                       0.00000                       0.00000
                       0.00000                       0.00000                       0.00000
                       0.00000                       0.00000                       0.00000
                       0.00000                       0.00000                       0.00000
                       0.00000                       0.00000                       0.00000
                       0.00000                       0.00000                       0.00000
                       0.00000                       0.00000                       0.00000
                       0.00000                       0.00000                       0.00000
                       0.00000                       0.00000                       0.00000
                       0.00000                       0.00000                       0.00000
                       0.00000                       0.00000                       0.00000
                       0.00000                       0.00000                       0.00000
                       0.00000                       0.00000                       0.00000
                       0.00000                       0.00000                       0.00000
                       0.00000                       0.00000                       0.00000
                       0.00000                       0.00000                       0.00000
                       0.00000                       0.00000                       0.00000
                       0.00000                       0.00000                       0.00000
                       0.00000                       0.00000                       0.00000
                       0.00000                       0.00000                       0.00000
                       0.00000                       0.00000                       0.00000
                       0.00000                       0.00000                       0.00000
                       0.00000                       0.00000                       0.00000
                       0.00000                       0.00000                       0.00000
                       0.00000                       0.00000                       0.00000
                       0.00000                       0.00000                       0.00000
                       0.00000                       0.00000                       0.00000
        </DataArray>
        <DataArray type="Float32" Name="RotationalVelocity" NumberOfComponents="3" format="ascii">
                       0.00000                       0.00000                       0.00000
                       0.00000                       0.00000                       0.00000
                       0.00000                       0.00000                       0.00000
                       0.00000                       0.00000                       0.00000
                       0.00000                       0.00000                       0.00000
                       0.00000                       0.00000                       0.00000
                       0.00000                       0.00000                       0.00000
                       0.00000                       0.00000                       0.00000
                       0.00000                       0.00000                       0.00000
                       0.00000                       0.00000                       0.00000
                       0.00000                       0.00000                       0.00000
                       0.00000                       0.00000                       0.00000
                       0.00000                       0.00000                       0.00000
                       0.00000                       0.00000                       0.00000
                       0.00000                       0.00000                       0.00000
                       0.00000                       0.00000                       0.00000
                       0.00000                       0.00000                       0.00000
                       0.00000                       0.00000                       0.00000
                       0.00000                       0.00000                       0.00000
                       0.00000                       0.00000                       0.00000
                       0.00000                       0.00000                       0.00000
                       0.00000                       0.00000                       0.00000
                       0.00000                       0.00000                       0.00000
                       0.00000                       0.00000                       0.00000
                       0.00000                       0.00000                       0.00000
                       0.00000                       0.00000                       0.00000
                       0.00000                       0.00000                       0.00000
                       0.00000                       0.00000                       0.00000
                       0.00000                       0.00000                       0.00000
                       0.00000                       0.00000                       0.00000
                       0.00000                       0.00000                       0.00000
                       0.00000                       0.00000                       0.00000
                       0.00000                       0.00000                       0.00000
                       0.00000                       0.00000                       0.00000
                       0.00000                       0.00000                       0.00000
                       0.00000                       0.00000                       0.00000
                       0.00000                       0.00000                       0.00000
                       0.00000                       0.00000                       0.00000
                       0.00000                       0.00000                       0.00000
                       0.00000                       0.00000                       0.00000
                       0.00000                       0.00000                       0.00000
                       0.00000                       0.00000                       0.00000
                       0.00000                       0.00000                       0.00000
                       0.00000                       0.00000                       0.00000
                       0.00000                       0.00000                       0.00000
                       0.00000                       0.00000                       0.00000
                       0.00000                       0.00000                       0.00000
                       0.00000                       0.00000                       0.00000
                       0.00000                       0.00000                       0.00000
                       0.00000                       0.00000                       0.00000
                       0.00000                       0.00000                       0.00000
                       0.00000                       0.00000                       0.00000
                       0.00000                       0.00000                       0.00000
                       0.00000                       0.00000                       0.00000
                       0.00000                       0.00000                       0.00000
                       0.00000                       0.00000                       0.00000
                       0.00000                       0.00000                       0.00000
                       0.00000                       0.00000                       0.00000
                       0.00000                       0.00000                       0.00000
                       0.00000                       0.00000                       0.00000
                       0.00000                       0.00000                       0.00000
                       0.00000                       0.00000                       0.00000
                       0.00000                       0.00000                       0.00000
                       0.00000                       0.00000                       0.00000
                       0.00000                       0.00000                       0.00000
                       0.00000                       0.00000                       0.00000
                       0.00000                       0.00000                       0.00000
                       0.00000                       0.00000                       0.00000
                       0.00000                       0.00000                       0.00000
                       0.00000                       0.00000                       0.00000
                       0.00000                       0.00000                       0.00000
                       0.00000                       0.00000                       0.00000
                       0.00000                       0.00000                       0.00000
                       0.00000                       0.00000                       0.00000
                       0.00000                       0.00000                       0.00000
                       0.00000                       0.00000                       0.00000
                       0.00000                       0.00000                       0.00000
                       0.00000                       0.00000                       0.00000
                       0.00000                       0.00000                       0.00000
                       0.00000                       0.00000                       0.00000
                       0.00000                       0.00000                       0.00000
                       0.00000                       0.00000                       0.00000
                       0.00000                       0.00000                       0.00000
                       0.00000                       0.00000                       0.00000
                       0.00000                       0.00000                       0.00000
                       0.00000                       0.00000                       0.00000
                       0.00000                       0.00000                       0.00000
                       0.00000                       0.00000                       0.00000
                       0.00000                       0.00000                       0.00000
                       0.00000                       0.00000                       0.00000
                       0.00000                       0.00000                       0.00000
                       0.00000                       0.00000                       0.00000
                       0.00000                       0.00000                       0.00000
                       0.00000                       0.00000                       0.00000
                       0.00000                       0.00000                       0.00000
                       0.00000                       0.00000                       0.00000
                       0.00000                       0.00000                       0.00000
                       0.00000                       0.00000                       0.00000
                       0.00000                       0.00000                       0.00000
                       0.00000                       0.00000                       0.00000
                       0.00000                       0.00000                       0.00000
                       0.00000                       0.00000                       0.00000
        </DataArray>
        <DataArray type="Float32" Name="TranslationalAcceleration" NumberOfComponents="3" format="ascii">
                       0.00000                       0.00000                       0.00000
                       0.00000                       0.00000                       0.00000
                       0.00000                       0.00000                       0.00000
                       0.00000                       0.00000                       0.00000
                       0.00000                       0.00000                       0.00000
                       0.00000                       0.00000                       0.00000
                       0.00000                       0.00000                       0.00000
                       0.00000                       0.00000                       0.00000
                       0.00000                       0.00000                       0.00000
                       0.00000                       0.00000                       0.00000
                       0.00000                       0.00000                       0.00000
                       0.00000                       0.00000                       0.00000
                       0.00000                       0.00000                       0.00000
                       0.00000                       0.00000                       0.00000
                       0.00000                       0.00000                       0.00000