
Linearized model: Predictions were generated on 11-Jan-2024 at 12:32:35 using OpenFAST, compiled as a 64-bit application using single precision at commit v3.5.1
 linked with  NWTC Subroutine Library; ElastoDyn; InflowWind; AeroDyn; ServoDyn; HydroDyn; MoorDyn (v2.0.0, 2023-09-18)

Description from the FAST input file: CCT-9 Campign 4 model. Input files to be run with OpenFAST 3.5.0. GitHub branch from Lu Wang (https://github.com/luwang00/openfast/tree/dev) compiled on March 7, 2023.

Simulation information:
   Simulation time:                   502.7250 s
   Rotor Speed:                         0.7075 rad/s
   Azimuth:                             5.4684 rad
   Wind Speed:                          8.0000 m/s
   Number of continuous states:         0
   Number of discrete states:           0
   Number of constraint states:         0
   Number of inputs:                   54
   Number of outputs:                   0
   Jacobians included in this file?    No

Order of inputs:
     Column   Operating Point                     Rotating Frame? Derivative Order Description
   ---------- ---------------                     --------------- ---------------- -----------
          1    4.481E+00                                 F               0         CoupledKinematics X translation displacement, node 1, m
          2    3.448E-01                                 F               0         CoupledKinematics Y translation displacement, node 1, m
          3   -4.743E+00                                 F               0         CoupledKinematics Z translation displacement, node 1, m
          4    4.418E+00                                 F               0         CoupledKinematics X translation displacement, node 2, m
          5    2.455E-01                                 F               0         CoupledKinematics Y translation displacement, node 2, m
          6   -2.319E-01                                 F               0         CoupledKinematics Z translation displacement, node 2, m
          7    4.763E+00                                 F               0         CoupledKinematics X translation displacement, node 3, m
          8   -8.322E-02                                 F               0         CoupledKinematics Y translation displacement, node 3, m
          9    4.959E+00                                 F               0         CoupledKinematics Z translation displacement, node 3, m
         10    9.965E-01,  4.258E-03, -8.381E-02         F               0         CoupledKinematics X orientation angle, node 1, rad
         11   -6.340E-04,  9.991E-01,  4.322E-02         F               0         CoupledKinematics Y orientation angle, node 1, rad
         12    8.392E-02, -4.302E-02,  9.955E-01         F               0         CoupledKinematics Z orientation angle, node 1, rad
         13    9.965E-01,  4.258E-03, -8.381E-02         F               0         CoupledKinematics X orientation angle, node 2, rad
         14   -6.340E-04,  9.991E-01,  4.322E-02         F               0         CoupledKinematics Y orientation angle, node 2, rad
         15    8.392E-02, -4.302E-02,  9.955E-01         F               0         CoupledKinematics Z orientation angle, node 2, rad
         16    9.965E-01,  4.258E-03, -8.381E-02         F               0         CoupledKinematics X orientation angle, node 3, rad
         17   -6.340E-04,  9.991E-01,  4.322E-02         F               0         CoupledKinematics Y orientation angle, node 3, rad
         18    8.392E-02, -4.302E-02,  9.955E-01         F               0         CoupledKinematics Z orientation angle, node 3, rad
         19   -4.705E-03                                 F               0         CoupledKinematics X translation velocity, node 1, m/s
         20    7.363E-04                                 F               0         CoupledKinematics Y translation velocity, node 1, m/s
         21    4.197E-03                                 F               0         CoupledKinematics Z translation velocity, node 1, m/s
         22   -4.873E-03                                 F               0         CoupledKinematics X translation velocity, node 2, m/s
         23    8.311E-04                                 F               0         CoupledKinematics Y translation velocity, node 2, m/s
         24    2.006E-03                                 F               0         CoupledKinematics Z translation velocity, node 2, m/s
         25   -4.771E-03                                 F               0         CoupledKinematics X translation velocity, node 3, m/s
         26    7.887E-04                                 F               0         CoupledKinematics Y translation velocity, node 3, m/s
         27    3.323E-03                                 F               0         CoupledKinematics Z translation velocity, node 3, m/s
         28   -2.130E-05                                 F               0         CoupledKinematics X rotation velocity, node 1, rad/s
         29    2.412E-06                                 F               0         CoupledKinematics Y rotation velocity, node 1, rad/s
         30    1.735E-06                                 F               0         CoupledKinematics Z rotation velocity, node 1, rad/s
         31   -2.130E-05                                 F               0         CoupledKinematics X rotation velocity, node 2, rad/s
         32    2.412E-06                                 F               0         CoupledKinematics Y rotation velocity, node 2, rad/s
         33    1.735E-06                                 F               0         CoupledKinematics Z rotation velocity, node 2, rad/s
         34   -2.130E-05                                 F               0         CoupledKinematics X rotation velocity, node 3, rad/s
         35    2.412E-06                                 F               0         CoupledKinematics Y rotation velocity, node 3, rad/s
         36    1.735E-06                                 F               0         CoupledKinematics Z rotation velocity, node 3, rad/s
         37   -6.521E-04                                 F               0         CoupledKinematics X translation acceleration, node 1, m/s^2
         38   -5.638E-05                                 F               0         CoupledKinematics Y translation acceleration, node 1, m/s^2
         39    3.656E-04                                 F               0         CoupledKinematics Z translation acceleration, node 1, m/s^2
         40    1.177E-04                                 F               0         CoupledKinematics X translation acceleration, node 2, m/s^2
         41   -9.449E-05                                 F               0         CoupledKinematics Y translation acceleration, node 2, m/s^2
         42    1.364E-03                                 F               0         CoupledKinematics Z translation acceleration, node 2, m/s^2
         43   -2.664E-04                                 F               0         CoupledKinematics X translation acceleration, node 3, m/s^2
         44    5.128E-04                                 F               0         CoupledKinematics Y translation acceleration, node 3, m/s^2
         45    9.041E-04                                 F               0         CoupledKinematics Z translation acceleration, node 3, m/s^2
         46    9.701E-06                                 F               0         CoupledKinematics X rotation acceleration, node 1, rad/s^2
         47    4.843E-07                                 F               0         CoupledKinematics Y rotation acceleration, node 1, rad/s^2
         48   -7.459E-06                                 F               0         CoupledKinematics Z rotation acceleration, node 1, rad/s^2
         49    9.701E-06                                 F               0         CoupledKinematics X rotation acceleration, node 2, rad/s^2
         50    4.843E-07                                 F               0         CoupledKinematics Y rotation acceleration, node 2, rad/s^2
         51   -7.459E-06                                 F               0         CoupledKinematics Z rotation acceleration, node 2, rad/s^2
         52    9.701E-06                                 F               0         CoupledKinematics X rotation acceleration, node 3, rad/s^2
         53    4.843E-07                                 F               0         CoupledKinematics Y rotation acceleration, node 3, rad/s^2
         54   -7.459E-06                                 F               0         CoupledKinematics Z rotation acceleration, node 3, rad/s^2


Linearized state matrices:

