
Linearized model: Predictions were generated on 11-Jan-2024 at 12:32:35 using OpenFAST, compiled as a 64-bit application using single precision at commit v3.5.1
 linked with  NWTC Subroutine Library; ElastoDyn; InflowWind; AeroDyn; ServoDyn; HydroDyn; MoorDyn (v2.0.0, 2023-09-18)

Description from the FAST input file: CCT-9 Campign 4 model. Input files to be run with OpenFAST 3.5.0. GitHub branch from Lu Wang (https://github.com/luwang00/openfast/tree/dev) compiled on March 7, 2023.

Simulation information:
   Simulation time:                   502.7250 s
   Rotor Speed:                         0.7075 rad/s
   Azimuth:                             5.4684 rad
   Wind Speed:                          8.0000 m/s
   Number of continuous states:         0
   Number of discrete states:           0
   Number of constraint states:         0
   Number of inputs:                 1746
   Number of outputs:                   4
   Jacobians included in this file?    No

Order of inputs:
     Column   Operating Point                     Rotating Frame? Derivative Order Description
   ---------- ---------------                     --------------- ---------------- -----------
          1    7.297E+00                                 F               0         Tower X translation displacement, node 1, m
          2   -1.237E+00                                 F               0         Tower Y translation displacement, node 1, m
          3   -1.648E-01                                 F               0         Tower Z translation displacement, node 1, m
          4    8.341E+00                                 F               0         Tower X translation displacement, node 2, m
          5   -1.770E+00                                 F               0         Tower Y translation displacement, node 2, m
          6   -2.205E-01                                 F               0         Tower Z translation displacement, node 2, m
          7    9.400E+00                                 F               0         Tower X translation displacement, node 3, m
          8   -2.309E+00                                 F               0         Tower Y translation displacement, node 3, m
          9   -2.777E-01                                 F               0         Tower Z translation displacement, node 3, m
         10    1.047E+01                                 F               0         Tower X translation displacement, node 4, m
         11   -2.851E+00                                 F               0         Tower Y translation displacement, node 4, m
         12   -3.362E-01                                 F               0         Tower Z translation displacement, node 4, m
         13    1.155E+01                                 F               0         Tower X translation displacement, node 5, m
         14   -3.397E+00                                 F               0         Tower Y translation displacement, node 5, m
         15   -3.956E-01                                 F               0         Tower Z translation displacement, node 5, m
         16    1.264E+01                                 F               0         Tower X translation displacement, node 6, m
         17   -3.946E+00                                 F               0         Tower Y translation displacement, node 6, m
         18   -4.558E-01                                 F               0         Tower Z translation displacement, node 6, m
         19    1.373E+01                                 F               0         Tower X translation displacement, node 7, m
         20   -4.497E+00                                 F               0         Tower Y translation displacement, node 7, m
         21   -5.165E-01                                 F               0         Tower Z translation displacement, node 7, m
         22    1.483E+01                                 F               0         Tower X translation displacement, node 8, m
         23   -5.050E+00                                 F               0         Tower Y translation displacement, node 8, m
         24   -5.777E-01                                 F               0         Tower Z translation displacement, node 8, m
         25    1.593E+01                                 F               0         Tower X translation displacement, node 9, m
         26   -5.605E+00                                 F               0         Tower Y translation displacement, node 9, m
         27   -6.392E-01                                 F               0         Tower Z translation displacement, node 9, m
         28    1.703E+01                                 F               0         Tower X translation displacement, node 10, m
         29   -6.160E+00                                 F               0         Tower Y translation displacement, node 10, m
         30   -7.008E-01                                 F               0         Tower Z translation displacement, node 10, m
         31    1.813E+01                                 F               0         Tower X translation displacement, node 11, m
         32   -6.716E+00                                 F               0         Tower Y translation displacement, node 11, m
         33   -7.626E-01                                 F               0         Tower Z translation displacement, node 11, m
         34    9.965E-01,  4.258E-03, -8.381E-02         F               0         Tower X orientation angle, node 1, rad
         35   -6.340E-04,  9.991E-01,  4.322E-02         F               0         Tower Y orientation angle, node 1, rad
         36    8.392E-02, -4.302E-02,  9.955E-01         F               0         Tower Z orientation angle, node 1, rad
         37    9.964E-01,  4.311E-03, -8.502E-02         F               0         Tower X orientation angle, node 2, rad
         38   -6.013E-04,  9.990E-01,  4.361E-02         F               0         Tower Y orientation angle, node 2, rad
         39    8.512E-02, -4.340E-02,  9.954E-01         F               0         Tower Z orientation angle, node 2, rad
         40    9.963E-01,  4.356E-03, -8.606E-02         F               0         Tower X orientation angle, node 3, rad
         41   -5.716E-04,  9.990E-01,  4.395E-02         F               0         Tower Y orientation angle, node 3, rad
         42    8.617E-02, -4.374E-02,  9.953E-01         F               0         Tower Z orientation angle, node 3, rad
         43    9.962E-01,  4.394E-03, -8.692E-02         F               0         Tower X orientation angle, node 4, rad
         44   -5.454E-04,  9.990E-01,  4.426E-02         F               0         Tower Y orientation angle, node 4, rad
         45    8.702E-02, -4.404E-02,  9.952E-01         F               0         Tower Z orientation angle, node 4, rad
         46    9.961E-01,  4.425E-03, -8.760E-02         F               0         Tower X orientation angle, node 5, rad
         47   -5.227E-04,  9.990E-01,  4.452E-02         F               0         Tower Y orientation angle, node 5, rad
         48    8.771E-02, -4.430E-02,  9.952E-01         F               0         Tower Z orientation angle, node 5, rad
         49    9.961E-01,  4.448E-03, -8.812E-02         F               0         Tower X orientation angle, node 6, rad
         50   -5.036E-04,  9.990E-01,  4.473E-02         F               0         Tower Y orientation angle, node 6, rad
         51    8.823E-02, -4.451E-02,  9.951E-01         F               0         Tower Z orientation angle, node 6, rad
         52    9.961E-01,  4.465E-03, -8.849E-02         F               0         Tower X orientation angle, node 7, rad
         53   -4.883E-04,  9.990E-01,  4.491E-02         F               0         Tower Y orientation angle, node 7, rad
         54    8.860E-02, -4.469E-02,  9.951E-01         F               0         Tower Z orientation angle, node 7, rad
         55    9.960E-01,  4.476E-03, -8.875E-02         F               0         Tower X orientation angle, node 8, rad
         56   -4.764E-04,  9.990E-01,  4.504E-02         F               0         Tower Y orientation angle, node 8, rad
         57    8.886E-02, -4.482E-02,  9.950E-01         F               0         Tower Z orientation angle, node 8, rad
         58    9.960E-01,  4.484E-03, -8.891E-02         F               0         Tower X orientation angle, node 9, rad
         59   -4.677E-04,  9.990E-01,  4.514E-02         F               0         Tower Y orientation angle, node 9, rad
         60    8.902E-02, -4.492E-02,  9.950E-01         F               0         Tower Z orientation angle, node 9, rad
         61    9.960E-01,  4.488E-03, -8.900E-02         F               0         Tower X orientation angle, node 10, rad
         62   -4.620E-04,  9.990E-01,  4.520E-02         F               0         Tower Y orientation angle, node 10, rad
         63    8.911E-02, -4.498E-02,  9.950E-01         F               0         Tower Z orientation angle, node 10, rad
         64    9.960E-01,  4.490E-03, -8.904E-02         F               0         Tower X orientation angle, node 11, rad
         65   -4.589E-04,  9.990E-01,  4.524E-02         F               0         Tower Y orientation angle, node 11, rad
         66    8.915E-02, -4.502E-02,  9.950E-01         F               0         Tower Z orientation angle, node 11, rad
         67   -4.702E-03                                 F               0         Tower X translation velocity, node 1, m/s
         68    1.484E-03                                 F               0         Tower Y translation velocity, node 1, m/s
         69    3.198E-03                                 F               0         Tower Z translation velocity, node 1, m/s
         70   -4.665E-03                                 F               0         Tower X translation velocity, node 2, m/s
         71    1.751E-03                                 F               0         Tower Y translation velocity, node 2, m/s
         72    3.207E-03                                 F               0         Tower Z translation velocity, node 2, m/s
         73   -4.608E-03                                 F               0         Tower X translation velocity, node 3, m/s
         74    2.028E-03                                 F               0         Tower Y translation velocity, node 3, m/s
         75    3.214E-03                                 F               0         Tower Z translation velocity, node 3, m/s
         76   -4.535E-03                                 F               0         Tower X translation velocity, node 4, m/s
         77    2.312E-03                                 F               0         Tower Y translation velocity, node 4, m/s
         78    3.220E-03                                 F               0         Tower Z translation velocity, node 4, m/s
         79   -4.443E-03                                 F               0         Tower X translation velocity, node 5, m/s
         80    2.602E-03                                 F               0         Tower Y translation velocity, node 5, m/s
         81    3.225E-03                                 F               0         Tower Z translation velocity, node 5, m/s
         82   -4.335E-03                                 F               0         Tower X translation velocity, node 6, m/s
         83    2.899E-03                                 F               0         Tower Y translation velocity, node 6, m/s
         84    3.229E-03                                 F               0         Tower Z translation velocity, node 6, m/s
         85   -4.211E-03                                 F               0         Tower X translation velocity, node 7, m/s
         86    3.199E-03                                 F               0         Tower Y translation velocity, node 7, m/s
         87    3.231E-03                                 F               0         Tower Z translation velocity, node 7, m/s
         88   -4.073E-03                                 F               0         Tower X translation velocity, node 8, m/s
         89    3.504E-03                                 F               0         Tower Y translation velocity, node 8, m/s
         90    3.233E-03                                 F               0         Tower Z translation velocity, node 8, m/s
         91   -3.922E-03                                 F               0         Tower X translation velocity, node 9, m/s
         92    3.812E-03                                 F               0         Tower Y translation velocity, node 9, m/s
         93    3.233E-03                                 F               0         Tower Z translation velocity, node 9, m/s
         94   -3.761E-03                                 F               0         Tower X translation velocity, node 10, m/s
         95    4.122E-03                                 F               0         Tower Y translation velocity, node 10, m/s
         96    3.233E-03                                 F               0         Tower Z translation velocity, node 10, m/s
         97   -3.594E-03                                 F               0         Tower X translation velocity, node 11, m/s
         98    4.433E-03                                 F               0         Tower Y translation velocity, node 11, m/s
         99    3.232E-03                                 F               0         Tower Z translation velocity, node 11, m/s
        100    1.887E+01                                 F               0         Hub X translation displacement, node 1, m
        101   -7.118E+00                                 F               0         Hub Y translation displacement, node 1, m
        102    1.599E-01                                 F               0         Hub Z translation displacement, node 1, m
        103    9.812E-01,  9.171E-03, -1.926E-01         F               0         Hub X orientation angle, node 1, rad
        104   -1.406E-01,  7.175E-01, -6.822E-01         F               0         Hub Y orientation angle, node 1, rad
        105    1.319E-01,  6.964E-01,  7.054E-01         F               0         Hub Z orientation angle, node 1, rad
        106    6.942E-01                                 F               0         Hub X rotation velocity, node 1, rad/s
        107    6.502E-03                                 F               0         Hub Y rotation velocity, node 1, rad/s
        108   -1.362E-01                                 F               0         Hub Z rotation velocity, node 1, rad/s
        109    9.850E-01, -1.212E-02, -1.722E-01         F               0         Blade root 1 X orientation angle, node 1, rad
        110   -1.114E-01,  7.175E-01, -6.876E-01         F               0         Blade root 1 Y orientation angle, node 1, rad
        111    1.319E-01,  6.964E-01,  7.054E-01         F               0         Blade root 1 Z orientation angle, node 1, rad
        112    9.753E-01,  1.917E-03, -2.207E-01         F               0         Blade root 2 X orientation angle, node 1, rad
        113    2.136E-01,  2.445E-01,  9.458E-01         F               0         Blade root 2 Y orientation angle, node 1, rad
        114    5.578E-02, -9.696E-01,  2.381E-01         F               0         Blade root 2 Z orientation angle, node 1, rad
        115    9.821E-01,  3.770E-02, -1.845E-01         F               0         Blade root 3 X orientation angle, node 1, rad
        116   -1.482E-02, -9.612E-01, -2.754E-01         F               0         Blade root 3 Y orientation angle, node 1, rad
        117   -1.877E-01,  2.732E-01, -9.435E-01         F               0         Blade root 3 Z orientation angle, node 1, rad
        118    1.902E+01                                 F               0         Blade 1 X translation displacement, node 1, m
        119   -3.260E+00                                 F               0         Blade 1 Y translation displacement, node 1, m
        120   -1.442E+00                                 F               0         Blade 1 Z translation displacement, node 1, m
        121    1.906E+01                                 F               0         Blade 1 X translation displacement, node 2, m
        122   -2.330E+00                                 F               0         Blade 1 Y translation displacement, node 2, m
        123   -1.828E+00                                 F               0         Blade 1 Z translation displacement, node 2, m
        124    1.956E+01                                 F               0         Blade 1 X translation displacement, node 3, m
        125    1.031E+01                                 F               0         Blade 1 Y translation displacement, node 3, m
        126   -7.077E+00                                 F               0         Blade 1 Z translation displacement, node 3, m
        127    1.966E+01                                 F               0         Blade 1 X translation displacement, node 4, m
        128    1.301E+01                                 F               0         Blade 1 Y translation displacement, node 4, m
        129   -8.195E+00                                 F               0         Blade 1 Z translation displacement, node 4, m
        130    1.977E+01                                 F               0         Blade 1 X translation displacement, node 5, m
        131    1.570E+01                                 F               0         Blade 1 Y translation displacement, node 5, m
        132   -9.313E+00                                 F               0         Blade 1 Z translation displacement, node 5, m
        133    1.987E+01                                 F               0         Blade 1 X translation displacement, node 6, m
        134    1.839E+01                                 F               0         Blade 1 Y translation displacement, node 6, m
        135   -1.043E+01                                 F               0         Blade 1 Z translation displacement, node 6, m
        136    1.998E+01                                 F               0         Blade 1 X translation displacement, node 7, m
        137    2.109E+01                                 F               0         Blade 1 Y translation displacement, node 7, m
        138   -1.155E+01                                 F               0         Blade 1 Z translation displacement, node 7, m
        139    2.009E+01                                 F               0         Blade 1 X translation displacement, node 8, m
        140    2.378E+01                                 F               0         Blade 1 Y translation displacement, node 8, m
        141   -1.267E+01                                 F               0         Blade 1 Z translation displacement, node 8, m
        142    2.019E+01                                 F               0         Blade 1 X translation displacement, node 9, m
        143    2.647E+01                                 F               0         Blade 1 Y translation displacement, node 9, m
        144   -1.379E+01                                 F               0         Blade 1 Z translation displacement, node 9, m
        145    2.030E+01                                 F               0         Blade 1 X translation displacement, node 10, m
        146    2.917E+01                                 F               0         Blade 1 Y translation displacement, node 10, m
        147   -1.490E+01                                 F               0         Blade 1 Z translation displacement, node 10, m
        148    2.040E+01                                 F               0         Blade 1 X translation displacement, node 11, m
        149    3.186E+01                                 F               0         Blade 1 Y translation displacement, node 11, m
        150   -1.602E+01                                 F               0         Blade 1 Z translation displacement, node 11, m
        151    2.051E+01                                 F               0         Blade 1 X translation displacement, node 12, m
        152    3.456E+01                                 F               0         Blade 1 Y translation displacement, node 12, m
        153   -1.714E+01                                 F               0         Blade 1 Z translation displacement, node 12, m
        154    2.061E+01                                 F               0         Blade 1 X translation displacement, node 13, m
        155    3.725E+01                                 F               0         Blade 1 Y translation displacement, node 13, m
        156   -1.826E+01                                 F               0         Blade 1 Z translation displacement, node 13, m
        157    2.072E+01                                 F               0         Blade 1 X translation displacement, node 14, m
        158    3.994E+01                                 F               0         Blade 1 Y translation displacement, node 14, m
        159   -1.938E+01                                 F               0         Blade 1 Z translation displacement, node 14, m
        160    2.083E+01                                 F               0         Blade 1 X translation displacement, node 15, m
        161    4.264E+01                                 F               0         Blade 1 Y translation displacement, node 15, m
        162   -2.050E+01                                 F               0         Blade 1 Z translation displacement, node 15, m
        163    2.093E+01                                 F               0         Blade 1 X translation displacement, node 16, m
        164    4.533E+01                                 F               0         Blade 1 Y translation displacement, node 16, m
        165   -2.161E+01                                 F               0         Blade 1 Z translation displacement, node 16, m
        166    2.104E+01                                 F               0         Blade 1 X translation displacement, node 17, m
        167    4.802E+01                                 F               0         Blade 1 Y translation displacement, node 17, m
        168   -2.273E+01                                 F               0         Blade 1 Z translation displacement, node 17, m
        169    2.114E+01                                 F               0         Blade 1 X translation displacement, node 18, m
        170    5.072E+01                                 F               0         Blade 1 Y translation displacement, node 18, m
        171   -2.385E+01                                 F               0         Blade 1 Z translation displacement, node 18, m
        172    2.125E+01                                 F               0         Blade 1 X translation displacement, node 19, m
        173    5.341E+01                                 F               0         Blade 1 Y translation displacement, node 19, m
        174   -2.497E+01                                 F               0         Blade 1 Z translation displacement, node 19, m
        175    2.136E+01                                 F               0         Blade 1 X translation displacement, node 20, m
        176    5.610E+01                                 F               0         Blade 1 Y translation displacement, node 20, m
        177   -2.609E+01                                 F               0         Blade 1 Z translation displacement, node 20, m
        178    2.146E+01                                 F               0         Blade 1 X translation displacement, node 21, m
        179    5.880E+01                                 F               0         Blade 1 Y translation displacement, node 21, m
        180   -2.721E+01                                 F               0         Blade 1 Z translation displacement, node 21, m
        181    2.157E+01                                 F               0         Blade 1 X translation displacement, node 22, m
        182    6.149E+01                                 F               0         Blade 1 Y translation displacement, node 22, m
        183   -2.832E+01                                 F               0         Blade 1 Z translation displacement, node 22, m
        184    2.167E+01                                 F               0         Blade 1 X translation displacement, node 23, m
        185    6.419E+01                                 F               0         Blade 1 Y translation displacement, node 23, m
        186   -2.944E+01                                 F               0         Blade 1 Z translation displacement, node 23, m
        187    2.178E+01                                 F               0         Blade 1 X translation displacement, node 24, m
        188    6.688E+01                                 F               0         Blade 1 Y translation displacement, node 24, m
        189   -3.056E+01                                 F               0         Blade 1 Z translation displacement, node 24, m
        190    2.189E+01                                 F               0         Blade 1 X translation displacement, node 25, m
        191    6.957E+01                                 F               0         Blade 1 Y translation displacement, node 25, m
        192   -3.168E+01                                 F               0         Blade 1 Z translation displacement, node 25, m
        193    2.199E+01                                 F               0         Blade 1 X translation displacement, node 26, m
        194    7.227E+01                                 F               0         Blade 1 Y translation displacement, node 26, m
        195   -3.280E+01                                 F               0         Blade 1 Z translation displacement, node 26, m
        196    2.210E+01                                 F               0         Blade 1 X translation displacement, node 27, m
        197    7.496E+01                                 F               0         Blade 1 Y translation displacement, node 27, m
        198   -3.392E+01                                 F               0         Blade 1 Z translation displacement, node 27, m
        199    2.219E+01                                 F               0         Blade 1 X translation displacement, node 28, m
        200    7.724E+01                                 F               0         Blade 1 Y translation displacement, node 28, m
        201   -3.486E+01                                 F               0         Blade 1 Z translation displacement, node 28, m
        202    9.274E-01, -3.380E-01,  1.603E-01         F               0         Blade 1 X orientation angle, node 1, rad
        203    3.500E-01,  6.330E-01, -6.905E-01         F               0         Blade 1 Y orientation angle, node 1, rad
        204    1.319E-01,  6.964E-01,  7.054E-01         F               0         Blade 1 Z orientation angle, node 1, rad
        205    9.274E-01, -3.380E-01,  1.603E-01         F               0         Blade 1 X orientation angle, node 2, rad
        206    3.500E-01,  6.330E-01, -6.905E-01         F               0         Blade 1 Y orientation angle, node 2, rad
        207    1.319E-01,  6.964E-01,  7.054E-01         F               0         Blade 1 Z orientation angle, node 2, rad
        208    9.839E-01, -1.783E-01, -7.953E-03         F               0         Blade 1 X orientation angle, node 3, rad
        209    1.202E-01,  6.951E-01, -7.088E-01         F               0         Blade 1 Y orientation angle, node 3, rad
        210    1.319E-01,  6.964E-01,  7.054E-01         F               0         Blade 1 Z orientation angle, node 3, rad
        211    9.881E-01, -1.488E-01, -3.787E-02         F               0         Blade 1 X orientation angle, node 4, rad
        212    7.859E-02,  7.020E-01, -7.078E-01         F               0         Blade 1 Y orientation angle, node 4, rad
        213    1.319E-01,  6.964E-01,  7.054E-01         F               0         Blade 1 Z orientation angle, node 4, rad
        214    9.902E-01, -1.254E-01, -6.132E-02         F               0         Blade 1 X orientation angle, node 5, rad
        215    4.578E-02,  7.066E-01, -7.062E-01         F               0         Blade 1 Y orientation angle, node 5, rad
        216    1.319E-01,  6.964E-01,  7.054E-01         F               0         Blade 1 Z orientation angle, node 5, rad
        217    9.911E-01, -1.067E-01, -8.003E-02         F               0         Blade 1 X orientation angle, node 6, rad
        218    1.950E-02,  7.096E-01, -7.043E-01         F               0         Blade 1 Y orientation angle, node 6, rad
        219    1.319E-01,  6.964E-01,  7.054E-01         F               0         Blade 1 Z orientation angle, node 6, rad
        220    9.913E-01, -9.115E-02, -9.538E-02         F               0         Blade 1 X orientation angle, node 7, rad
        221   -2.126E-03,  7.118E-01, -7.024E-01         F               0         Blade 1 Y orientation angle, node 7, rad
        222    1.319E-01,  6.964E-01,  7.054E-01         F               0         Blade 1 Z orientation angle, node 7, rad
        223    9.911E-01, -7.822E-02, -1.081E-01         F               0         Blade 1 X orientation angle, node 8, rad
        224   -2.012E-02,  7.133E-01, -7.005E-01         F               0         Blade 1 Y orientation angle, node 8, rad
        225    1.319E-01,  6.964E-01,  7.054E-01         F               0         Blade 1 Z orientation angle, node 8, rad
        226    9.906E-01, -6.726E-02, -1.189E-01         F               0         Blade 1 X orientation angle, node 9, rad
        227   -3.534E-02,  7.144E-01, -6.988E-01         F               0         Blade 1 Y orientation angle, node 9, rad