
Linearized model: Predictions were generated on 11-Jan-2024 at 12:32:35 using OpenFAST, compiled as a 64-bit application using single precision at commit v3.5.1
 linked with  NWTC Subroutine Library; ElastoDyn; InflowWind; AeroDyn; ServoDyn; HydroDyn; MoorDyn (v2.0.0, 2023-09-18)

Description from the FAST input file: CCT-9 Campign 4 model. Input files to be run with OpenFAST 3.5.0. GitHub branch from Lu Wang (https://github.com/luwang00/openfast/tree/dev) compiled on March 7, 2023.

Simulation information:
   Simulation time:                   507.4250 s
   Rotor Speed:                         0.7075 rad/s
   Azimuth:                             2.5097 rad
   Wind Speed:                          8.0000 m/s
   Number of continuous states:        22
   Number of discrete states:           0
   Number of constraint states:         0
   Number of inputs:                 4033
   Number of outputs:                  55
   Jacobians included in this file?    No

Order of continuous states:
   Row/Column Operating Point                     Rotating Frame? Derivative Order Description
   ---------- ---------------                     --------------- ---------------- -----------
          1    5.734E+00                                 F               2         ED Platform horizontal surge translation DOF (internal DOF index = DOF_Sg), m
          2   -4.448E-01                                 F               2         ED Platform horizontal sway translation DOF (internal DOF index = DOF_Sw), m
          3   -6.396E-02                                 F               2         ED Platform vertical heave translation DOF (internal DOF index = DOF_Hv), m
          4    4.341E-02                                 F               2         ED Platform roll tilt rotation DOF (internal DOF index = DOF_R), rad
          5    8.428E-02                                 F               2         ED Platform pitch tilt rotation DOF (internal DOF index = DOF_P), rad
          6    2.408E-03                                 F               2         ED Platform yaw rotation DOF (internal DOF index = DOF_Y), rad
          7    4.627E-01                                 F               2         ED 1st tower fore-aft bending mode DOF (internal DOF index = DOF_TFA1), m
          8    1.684E-01                                 F               2         ED 1st tower side-to-side bending mode DOF (internal DOF index = DOF_TSS1), m
          9    1.460E-03                                 F               2         ED 2nd tower fore-aft bending mode DOF (internal DOF index = DOF_TFA2), m
         10    7.347E-05                                 F               2         ED 2nd tower side-to-side bending mode DOF (internal DOF index = DOF_TSS2), m
         11    9.389E-01                                 F               2         ED Variable speed generator DOF (internal DOF index = DOF_GeAz), rad
         12   -5.351E-03                                 F               2         ED First time derivative of Platform horizontal surge translation DOF (internal DOF index = DOF_Sg), m/s
         13   -3.023E-04                                 F               2         ED First time derivative of Platform horizontal sway translation DOF (internal DOF index = DOF_Sw), m/s
         14    3.484E-03                                 F               2         ED First time derivative of Platform vertical heave translation DOF (internal DOF index = DOF_Hv), m/s
         15    9.339E-05                                 F               2         ED First time derivative of Platform roll tilt rotation DOF (internal DOF index = DOF_R), rad/s
         16    1.489E-05                                 F               2         ED First time derivative of Platform pitch tilt rotation DOF (internal DOF index = DOF_P), rad/s
         17   -1.715E-05                                 F               2         ED First time derivative of Platform yaw rotation DOF (internal DOF index = DOF_Y), rad/s
         18   -5.351E-04                                 F               2         ED First time derivative of 1st tower fore-aft bending mode DOF (internal DOF index = DOF_TFA1), m/s
         19    6.545E-04                                 F               2         ED First time derivative of 1st tower side-to-side bending mode DOF (internal DOF index = DOF_TSS1), m/s
         20    3.345E-06                                 F               2         ED First time derivative of 2nd tower fore-aft bending mode DOF (internal DOF index = DOF_TFA2), m/s
         21    2.046E-07                                 F               2         ED First time derivative of 2nd tower side-to-side bending mode DOF (internal DOF index = DOF_TSS2), m/s
         22    7.075E-01                                 F               2         ED First time derivative of Variable speed generator DOF (internal DOF index = DOF_GeAz), rad/s

Order of continuous state derivatives:
   Row/Column Operating Point                     Rotating Frame? Derivative Order Description
   ---------- ---------------                     --------------- ---------------- -----------
          1   -5.351E-03                                 F               2         First time derivative of ED Platform horizontal surge translation DOF (internal DOF index = DOF_Sg), m/s
          2   -3.023E-04                                 F               2         First time derivative of ED Platform horizontal sway translation DOF (internal DOF index = DOF_Sw), m/s
          3    3.484E-03                                 F               2         First time derivative of ED Platform vertical heave translation DOF (internal DOF index = DOF_Hv), m/s
          4    9.339E-05                                 F               2         First time derivative of ED Platform roll tilt rotation DOF (internal DOF index = DOF_R), rad/s
          5    1.489E-05                                 F               2         First time derivative of ED Platform pitch tilt rotation DOF (internal DOF index = DOF_P), rad/s
          6   -1.715E-05                                 F               2         First time derivative of ED Platform yaw rotation DOF (internal DOF index = DOF_Y), rad/s
          7   -5.351E-04                                 F               2         First time derivative of ED 1st tower fore-aft bending mode DOF (internal DOF index = DOF_TFA1), m/s
          8    6.545E-04                                 F               2         First time derivative of ED 1st tower side-to-side bending mode DOF (internal DOF index = DOF_TSS1), m/s
          9    3.345E-06                                 F               2         First time derivative of ED 2nd tower fore-aft bending mode DOF (internal DOF index = DOF_TFA2), m/s
         10    2.046E-07                                 F               2         First time derivative of ED 2nd tower side-to-side bending mode DOF (internal DOF index = DOF_TSS2), m/s
         11    7.075E-01                                 F               2         First time derivative of ED Variable speed generator DOF (internal DOF index = DOF_GeAz), rad/s
         12   -1.477E-04                                 F               2         First time derivative of ED First time derivative of Platform horizontal surge translation DOF (internal DOF index = DOF_Sg), m/s/s
         13   -6.396E-04                                 F               2         First time derivative of ED First time derivative of Platform horizontal sway translation DOF (internal DOF index = DOF_Sw), m/s/s
         14   -9.579E-04                                 F               2         First time derivative of ED First time derivative of Platform vertical heave translation DOF (internal DOF index = DOF_Hv), m/s/s
         15    4.117E-05                                 F               2         First time derivative of ED First time derivative of Platform roll tilt rotation DOF (internal DOF index = DOF_R), rad/s/s
         16   -5.677E-06                                 F               2         First time derivative of ED First time derivative of Platform pitch tilt rotation DOF (internal DOF index = DOF_P), rad/s/s
         17   -3.308E-07                                 F               2         First time derivative of ED First time derivative of Platform yaw rotation DOF (internal DOF index = DOF_Y), rad/s/s
         18    7.844E-04                                 F               2         First time derivative of ED First time derivative of 1st tower fore-aft bending mode DOF (internal DOF index = DOF_TFA1), m/s/s
         19   -2.436E-04                                 F               2         First time derivative of ED First time derivative of 1st tower side-to-side bending mode DOF (internal DOF index = DOF_TSS1), m/s/s
         20   -2.634E-06                                 F               2         First time derivative of ED First time derivative of 2nd tower fore-aft bending mode DOF (internal DOF index = DOF_TFA2), m/s/s
         21    4.532E-07                                 F               2         First time derivative of ED First time derivative of 2nd tower side-to-side bending mode DOF (internal DOF index = DOF_TSS2), m/s/s
         22    1.626E-04                                 F               2         First time derivative of ED First time derivative of Variable speed generator DOF (internal DOF index = DOF_GeAz), rad/s/s

Order of inputs:
     Column   Operating Point                     Rotating Frame? Derivative Order Description
   ---------- ---------------                     --------------- ---------------- -----------
          1   -1.080E+01                                 F               0         IfW X-component position of node 1 (hub), m
          2    0.000E+00                                 F               0         IfW Y-component position of node 1 (hub), m
          3    1.497E+02                                 F               0         IfW Z-component position of node 1 (hub), m
          4    7.192E+00                                 F               0         IfW X-component position of node 2 (blade 1, node 1), m
          5   -1.020E+01                                 F               0         IfW Y-component position of node 2 (blade 1, node 1), m
          6    1.454E+02                                 F               0         IfW Z-component position of node 2 (blade 1, node 1), m
          7    6.985E+00                                 F               0         IfW X-component position of node 3 (blade 1, node 2), m
          8   -1.094E+01                                 F               0         IfW Y-component position of node 3 (blade 1, node 2), m
          9    1.443E+02                                 F               0         IfW Z-component position of node 3 (blade 1, node 2), m
         10    4.165E+00                                 F               0         IfW X-component position of node 4 (blade 1, node 3), m
         11   -2.100E+01                                 F               0         IfW Y-component position of node 4 (blade 1, node 3), m
         12    1.295E+02                                 F               0         IfW Z-component position of node 4 (blade 1, node 3), m
         13    3.564E+00                                 F               0         IfW X-component position of node 5 (blade 1, node 4), m
         14   -2.315E+01                                 F               0         IfW Y-component position of node 5 (blade 1, node 4), m
         15    1.263E+02                                 F               0         IfW Z-component position of node 5 (blade 1, node 4), m
         16    2.963E+00                                 F               0         IfW X-component position of node 6 (blade 1, node 5), m
         17   -2.529E+01                                 F               0         IfW Y-component position of node 6 (blade 1, node 5), m
         18    1.231E+02                                 F               0         IfW Z-component position of node 6 (blade 1, node 5), m
         19    2.362E+00                                 F               0         IfW X-component position of node 7 (blade 1, node 6), m
         20   -2.743E+01                                 F               0         IfW Y-component position of node 7 (blade 1, node 6), m
         21    1.200E+02                                 F               0         IfW Z-component position of node 7 (blade 1, node 6), m
         22    1.761E+00                                 F               0         IfW X-component position of node 8 (blade 1, node 7), m
         23   -2.958E+01                                 F               0         IfW Y-component position of node 8 (blade 1, node 7), m
         24    1.168E+02                                 F               0         IfW Z-component position of node 8 (blade 1, node 7), m
         25    1.160E+00                                 F               0         IfW X-component position of node 9 (blade 1, node 8), m
         26   -3.172E+01                                 F               0         IfW Y-component position of node 9 (blade 1, node 8), m
         27    1.136E+02                                 F               0         IfW Z-component position of node 9 (blade 1, node 8), m
         28    5.595E-01                                 F               0         IfW X-component position of node 10 (blade 1, node 9), m
         29   -3.386E+01                                 F               0         IfW Y-component position of node 10 (blade 1, node 9), m
         30    1.105E+02                                 F               0         IfW Z-component position of node 10 (blade 1, node 9), m
         31   -4.135E-02                                 F               0         IfW X-component position of node 11 (blade 1, node 10), m
         32   -3.601E+01                                 F               0         IfW Y-component position of node 11 (blade 1, node 10), m
         33    1.073E+02                                 F               0         IfW Z-component position of node 11 (blade 1, node 10), m
         34   -6.422E-01                                 F               0         IfW X-component position of node 12 (blade 1, node 11), m
         35   -3.815E+01                                 F               0         IfW Y-component position of node 12 (blade 1, node 11), m
         36    1.042E+02                                 F               0         IfW Z-component position of node 12 (blade 1, node 11), m
         37   -1.243E+00                                 F               0         IfW X-component position of node 13 (blade 1, node 12), m
         38   -4.029E+01                                 F               0         IfW Y-component position of node 13 (blade 1, node 12), m
         39    1.010E+02                                 F               0         IfW Z-component position of node 13 (blade 1, node 12), m
         40   -1.844E+00                                 F               0         IfW X-component position of node 14 (blade 1, node 13), m
         41   -4.244E+01                                 F               0         IfW Y-component position of node 14 (blade 1, node 13), m
         42    9.782E+01                                 F               0         IfW Z-component position of node 14 (blade 1, node 13), m
         43   -2.445E+00                                 F               0         IfW X-component position of node 15 (blade 1, node 14), m
         44   -4.458E+01                                 F               0         IfW Y-component position of node 15 (blade 1, node 14), m
         45    9.466E+01                                 F               0         IfW Z-component position of node 15 (blade 1, node 14), m
         46   -3.046E+00                                 F               0         IfW X-component position of node 16 (blade 1, node 15), m
         47   -4.672E+01                                 F               0         IfW Y-component position of node 16 (blade 1, node 15), m
         48    9.150E+01                                 F               0         IfW Z-component position of node 16 (blade 1, node 15), m
         49   -3.647E+00                                 F               0         IfW X-component position of node 17 (blade 1, node 16), m
         50   -4.887E+01                                 F               0         IfW Y-component position of node 17 (blade 1, node 16), m
         51    8.834E+01                                 F               0         IfW Z-component position of node 17 (blade 1, node 16), m
         52   -4.247E+00                                 F               0         IfW X-component position of node 18 (blade 1, node 17), m
         53   -5.101E+01                                 F               0         IfW Y-component position of node 18 (blade 1, node 17), m
         54    8.517E+01                                 F               0         IfW Z-component position of node 18 (blade 1, node 17), m
         55   -4.848E+00                                 F               0         IfW X-component position of node 19 (blade 1, node 18), m
         56   -5.315E+01                                 F               0         IfW Y-component position of node 19 (blade 1, node 18), m
         57    8.201E+01                                 F               0         IfW Z-component position of node 19 (blade 1, node 18), m
         58   -5.449E+00                                 F               0         IfW X-component position of node 20 (blade 1, node 19), m
         59   -5.530E+01                                 F               0         IfW Y-component position of node 20 (blade 1, node 19), m
         60    7.885E+01                                 F               0         IfW Z-component position of node 20 (blade 1, node 19), m
         61   -6.050E+00                                 F               0         IfW X-component position of node 21 (blade 1, node 20), m
         62   -5.744E+01                                 F               0         IfW Y-component position of node 21 (blade 1, node 20), m
         63    7.568E+01                                 F               0         IfW Z-component position of node 21 (blade 1, node 20), m
         64   -6.651E+00                                 F               0         IfW X-component position of node 22 (blade 1, node 21), m
         65   -5.959E+01                                 F               0         IfW Y-component position of node 22 (blade 1, node 21), m
         66    7.252E+01                                 F               0         IfW Z-component position of node 22 (blade 1, node 21), m
         67   -7.252E+00                                 F               0         IfW X-component position of node 23 (blade 1, node 22), m
         68   -6.173E+01                                 F               0         IfW Y-component position of node 23 (blade 1, node 22), m
         69    6.936E+01                                 F               0         IfW Z-component position of node 23 (blade 1, node 22), m
         70   -7.853E+00                                 F               0         IfW X-component position of node 24 (blade 1, node 23), m
         71   -6.387E+01                                 F               0         IfW Y-component position of node 24 (blade 1, node 23), m
         72    6.620E+01                                 F               0         IfW Z-component position of node 24 (blade 1, node 23), m
         73   -8.453E+00                                 F               0         IfW X-component position of node 25 (blade 1, node 24), m
         74   -6.602E+01                                 F               0         IfW Y-component position of node 25 (blade 1, node 24), m
         75    6.303E+01                                 F               0         IfW Z-component position of node 25 (blade 1, node 24), m
         76   -9.054E+00                                 F               0         IfW X-component position of node 26 (blade 1, node 25), m
         77   -6.816E+01                                 F               0         IfW Y-component position of node 26 (blade 1, node 25), m
         78    5.987E+01                                 F               0         IfW Z-component position of node 26 (blade 1, node 25), m
         79   -9.655E+00                                 F               0         IfW X-component position of node 27 (blade 1, node 26), m
         80   -7.030E+01                                 F               0         IfW Y-component position of node 27 (blade 1, node 26), m
         81    5.671E+01                                 F               0         IfW Z-component position of node 27 (blade 1, node 26), m
         82   -1.026E+01                                 F               0         IfW X-component position of node 28 (blade 1, node 27), m
         83   -7.245E+01                                 F               0         IfW Y-component position of node 28 (blade 1, node 27), m
         84    5.354E+01                                 F               0         IfW Z-component position of node 28 (blade 1, node 27), m
         85   -1.077E+01                                 F               0         IfW X-component position of node 29 (blade 1, node 28), m
         86   -7.426E+01                                 F               0         IfW Y-component position of node 29 (blade 1, node 28), m
         87    5.086E+01                                 F               0         IfW Z-component position of node 29 (blade 1, node 28), m
         88    7.935E+00                                 F               0         IfW X-component position of node 30 (blade 2, node 1), m
         89   -1.603E+00                                 F               0         IfW Y-component position of node 30 (blade 2, node 1), m
         90    1.496E+02                                 F               0         IfW Z-component position of node 30 (blade 2, node 1), m
         91    7.907E+00                                 F               0         IfW X-component position of node 31 (blade 2, node 2), m
         92   -2.708E-01                                 F               0         IfW Y-component position of node 31 (blade 2, node 2), m
         93    1.495E+02                                 F               0         IfW Z-component position of node 31 (blade 2, node 2), m
         94    7.521E+00                                 F               0         IfW X-component position of node 32 (blade 2, node 3), m
         95    1.784E+01                                 F               0         IfW Y-component position of node 32 (blade 2, node 3), m
         96    1.484E+02                                 F               0         IfW Z-component position of node 32 (blade 2, node 3), m
         97    7.439E+00                                 F               0         IfW X-component position of node 33 (blade 2, node 4), m
         98    2.170E+01                                 F               0         IfW Y-component position of node 33 (blade 2, node 4), m
         99    1.482E+02                                 F               0         IfW Z-component position of node 33 (blade 2, node 4), m
        100    7.357E+00                                 F               0         IfW X-component position of node 34 (blade 2, node 5), m
        101    2.556E+01                                 F               0         IfW Y-component position of node 34 (blade 2, node 5), m
        102    1.479E+02                                 F               0         IfW Z-component position of node 34 (blade 2, node 5), m
        103    7.275E+00                                 F               0         IfW X-component position of node 35 (blade 2, node 6), m
        104    2.942E+01                                 F               0         IfW Y-component position of node 35 (blade 2, node 6), m
        105    1.477E+02                                 F               0         IfW Z-component position of node 35 (blade 2, node 6), m
        106    7.192E+00                                 F               0         IfW X-component position of node 36 (blade 2, node 7), m
        107    3.328E+01                                 F               0         IfW Y-component position of node 36 (blade 2, node 7), m
        108    1.475E+02                                 F               0         IfW Z-component position of node 36 (blade 2, node 7), m
        109    7.110E+00                                 F               0         IfW X-component position of node 37 (blade 2, node 8), m
        110    3.714E+01                                 F               0         IfW Y-component position of node 37 (blade 2, node 8), m
        111    1.472E+02                                 F               0         IfW Z-component position of node 37 (blade 2, node 8), m
        112    7.028E+00                                 F               0         IfW X-component position of node 38 (blade 2, node 9), m
        113    4.100E+01                                 F               0         IfW Y-component position of node 38 (blade 2, node 9), m
        114    1.470E+02                                 F               0         IfW Z-component position of node 38 (blade 2, node 9), m
        115    6.946E+00                                 F               0         IfW X-component position of node 39 (blade 2, node 10), m
        116    4.486E+01                                 F               0         IfW Y-component position of node 39 (blade 2, node 10), m
        117    1.467E+02                                 F               0         IfW Z-component position of node 39 (blade 2, node 10), m
        118    6.864E+00                                 F               0         IfW X-component position of node 40 (blade 2, node 11), m
        119    4.872E+01                                 F               0         IfW Y-component position of node 40 (blade 2, node 11), m
        120    1.465E+02                                 F               0         IfW Z-component position of node 40 (blade 2, node 11), m
        121    6.782E+00                                 F               0         IfW X-component position of node 41 (blade 2, node 12), m
        122    5.258E+01                                 F               0         IfW Y-component position of node 41 (blade 2, node 12), m
        123    1.463E+02                                 F               0         IfW Z-component position of node 41 (blade 2, node 12), m
        124    6.700E+00                                 F               0         IfW X-component position of node 42 (blade 2, node 13), m
        125    5.644E+01                                 F               0         IfW Y-component position of node 42 (blade 2, node 13), m
        126    1.460E+02                                 F               0         IfW Z-component position of node 42 (blade 2, node 13), m
        127    6.617E+00                                 F               0         IfW X-component position of node 43 (blade 2, node 14), m
        128    6.030E+01                                 F               0         IfW Y-component position of node 43 (blade 2, node 14), m
        129    1.458E+02                                 F               0         IfW Z-component position of node 43 (blade 2, node 14), m
        130    6.535E+00                                 F               0         IfW X-component position of node 44 (blade 2, node 15), m
        131    6.416E+01                                 F               0         IfW Y-component position of node 44 (blade 2, node 15), m
        132    1.456E+02                                 F               0         IfW Z-component position of node 44 (blade 2, node 15), m
        133    6.453E+00                                 F               0         IfW X-component position of node 45 (blade 2, node 16), m
        134    6.802E+01                                 F               0         IfW Y-component position of node 45 (blade 2, node 16), m
        135    1.453E+02                                 F               0         IfW Z-component position of node 45 (blade 2, node 16), m
        136    6.371E+00                                 F               0         IfW X-component position of node 46 (blade 2, node 17), m
        137    7.188E+01                                 F               0         IfW Y-component position of node 46 (blade 2, node 17), m
        138    1.451E+02                                 F               0         IfW Z-component position of node 46 (blade 2, node 17), m
        139    6.289E+00                                 F               0         IfW X-component position of node 47 (blade 2, node 18), m
        140    7.574E+01                                 F               0         IfW Y-component position of node 47 (blade 2, node 18), m
        141    1.449E+02                                 F               0         IfW Z-component position of node 47 (blade 2, node 18), m
        142    6.207E+00                                 F               0         IfW X-component position of node 48 (blade 2, node 19), m
        143    7.960E+01                                 F               0         IfW Y-component position of node 48 (blade 2, node 19), m
        144    1.446E+02                                 F               0         IfW Z-component position of node 48 (blade 2, node 19), m