
Linearized model: Predictions were generated on 11-Jan-2024 at 12:32:35 using OpenFAST, compiled as a 64-bit application using single precision at commit v3.5.1
 linked with  NWTC Subroutine Library; ElastoDyn; InflowWind; AeroDyn; ServoDyn; HydroDyn; MoorDyn (v2.0.0, 2023-09-18)

Description from the FAST input file: CCT-9 Campign 4 model. Input files to be run with OpenFAST 3.5.0. GitHub branch from Lu Wang (https://github.com/luwang00/openfast/tree/dev) compiled on March 7, 2023.

Simulation information:
   Simulation time:                   501.7500 s
   Rotor Speed:                         0.7077 rad/s
   Azimuth:                             4.7785 rad
   Wind Speed:                          8.0000 m/s
   Number of continuous states:         0
   Number of discrete states:           0
   Number of constraint states:         0
   Number of inputs:                 1746
   Number of outputs:                   4
   Jacobians included in this file?    No

Order of inputs:
     Column   Operating Point                     Rotating Frame? Derivative Order Description
   ---------- ---------------                     --------------- ---------------- -----------
          1    7.302E+00                                 F               0         Tower X translation displacement, node 1, m
          2   -1.239E+00                                 F               0         Tower Y translation displacement, node 1, m
          3   -1.675E-01                                 F               0         Tower Z translation displacement, node 1, m
          4    8.345E+00                                 F               0         Tower X translation displacement, node 2, m
          5   -1.772E+00                                 F               0         Tower Y translation displacement, node 2, m
          6   -2.232E-01                                 F               0         Tower Z translation displacement, node 2, m
          7    9.404E+00                                 F               0         Tower X translation displacement, node 3, m
          8   -2.311E+00                                 F               0         Tower Y translation displacement, node 3, m
          9   -2.804E-01                                 F               0         Tower Z translation displacement, node 3, m
         10    1.047E+01                                 F               0         Tower X translation displacement, node 4, m
         11   -2.854E+00                                 F               0         Tower Y translation displacement, node 4, m
         12   -3.389E-01                                 F               0         Tower Z translation displacement, node 4, m
         13    1.155E+01                                 F               0         Tower X translation displacement, node 5, m
         14   -3.400E+00                                 F               0         Tower Y translation displacement, node 5, m
         15   -3.983E-01                                 F               0         Tower Z translation displacement, node 5, m
         16    1.264E+01                                 F               0         Tower X translation displacement, node 6, m
         17   -3.950E+00                                 F               0         Tower Y translation displacement, node 6, m
         18   -4.585E-01                                 F               0         Tower Z translation displacement, node 6, m
         19    1.373E+01                                 F               0         Tower X translation displacement, node 7, m
         20   -4.501E+00                                 F               0         Tower Y translation displacement, node 7, m
         21   -5.192E-01                                 F               0         Tower Z translation displacement, node 7, m
         22    1.483E+01                                 F               0         Tower X translation displacement, node 8, m
         23   -5.054E+00                                 F               0         Tower Y translation displacement, node 8, m
         24   -5.804E-01                                 F               0         Tower Z translation displacement, node 8, m
         25    1.593E+01                                 F               0         Tower X translation displacement, node 9, m
         26   -5.609E+00                                 F               0         Tower Y translation displacement, node 9, m
         27   -6.419E-01                                 F               0         Tower Z translation displacement, node 9, m
         28    1.703E+01                                 F               0         Tower X translation displacement, node 10, m
         29   -6.165E+00                                 F               0         Tower Y translation displacement, node 10, m
         30   -7.036E-01                                 F               0         Tower Z translation displacement, node 10, m
         31    1.813E+01                                 F               0         Tower X translation displacement, node 11, m
         32   -6.722E+00                                 F               0         Tower Y translation displacement, node 11, m
         33   -7.653E-01                                 F               0         Tower Z translation displacement, node 11, m
         34    9.965E-01,  4.254E-03, -8.381E-02         F               0         Tower X orientation angle, node 1, rad
         35   -6.278E-04,  9.991E-01,  4.325E-02         F               0         Tower Y orientation angle, node 1, rad
         36    8.391E-02, -4.304E-02,  9.955E-01         F               0         Tower Z orientation angle, node 1, rad
         37    9.964E-01,  4.307E-03, -8.501E-02         F               0         Tower X orientation angle, node 2, rad
         38   -5.950E-04,  9.990E-01,  4.364E-02         F               0         Tower Y orientation angle, node 2, rad
         39    8.512E-02, -4.343E-02,  9.954E-01         F               0         Tower Z orientation angle, node 2, rad
         40    9.963E-01,  4.352E-03, -8.605E-02         F               0         Tower X orientation angle, node 3, rad
         41   -5.652E-04,  9.990E-01,  4.398E-02         F               0         Tower Y orientation angle, node 3, rad
         42    8.616E-02, -4.377E-02,  9.953E-01         F               0         Tower Z orientation angle, node 3, rad
         43    9.962E-01,  4.390E-03, -8.691E-02         F               0         Tower X orientation angle, node 4, rad
         44   -5.389E-04,  9.990E-01,  4.429E-02         F               0         Tower Y orientation angle, node 4, rad
         45    8.702E-02, -4.407E-02,  9.952E-01         F               0         Tower Z orientation angle, node 4, rad
         46    9.961E-01,  4.420E-03, -8.759E-02         F               0         Tower X orientation angle, node 5, rad
         47   -5.161E-04,  9.990E-01,  4.455E-02         F               0         Tower Y orientation angle, node 5, rad
         48    8.770E-02, -4.433E-02,  9.952E-01         F               0         Tower Z orientation angle, node 5, rad
         49    9.961E-01,  4.444E-03, -8.811E-02         F               0         Tower X orientation angle, node 6, rad
         50   -4.970E-04,  9.990E-01,  4.476E-02         F               0         Tower Y orientation angle, node 6, rad
         51    8.822E-02, -4.455E-02,  9.951E-01         F               0         Tower Z orientation angle, node 6, rad
         52    9.961E-01,  4.461E-03, -8.848E-02         F               0         Tower X orientation angle, node 7, rad
         53   -4.816E-04,  9.990E-01,  4.494E-02         F               0         Tower Y orientation angle, node 7, rad
         54    8.860E-02, -4.472E-02,  9.951E-01         F               0         Tower Z orientation angle, node 7, rad
         55    9.960E-01,  4.472E-03, -8.874E-02         F               0         Tower X orientation angle, node 8, rad
         56   -4.697E-04,  9.990E-01,  4.507E-02         F               0         Tower Y orientation angle, node 8, rad
         57    8.885E-02, -4.485E-02,  9.950E-01         F               0         Tower Z orientation angle, node 8, rad
         58    9.960E-01,  4.479E-03, -8.890E-02         F               0         Tower X orientation angle, node 9, rad
         59   -4.609E-04,  9.990E-01,  4.517E-02         F               0         Tower Y orientation angle, node 9, rad
         60    8.901E-02, -4.495E-02,  9.950E-01         F               0         Tower Z orientation angle, node 9, rad
         61    9.960E-01,  4.484E-03, -8.899E-02         F               0         Tower X orientation angle, node 10, rad
         62   -4.552E-04,  9.990E-01,  4.524E-02         F               0         Tower Y orientation angle, node 10, rad
         63    8.910E-02, -4.502E-02,  9.950E-01         F               0         Tower Z orientation angle, node 10, rad
         64    9.960E-01,  4.485E-03, -8.903E-02         F               0         Tower X orientation angle, node 11, rad
         65   -4.521E-04,  9.990E-01,  4.527E-02         F               0         Tower Y orientation angle, node 11, rad
         66    8.914E-02, -4.505E-02,  9.950E-01         F               0         Tower Z orientation angle, node 11, rad
         67   -4.246E-03                                 F               0         Tower X translation velocity, node 1, m/s
         68    1.814E-03                                 F               0         Tower Y translation velocity, node 1, m/s
         69    2.253E-03                                 F               0         Tower Z translation velocity, node 1, m/s
         70   -4.151E-03                                 F               0         Tower X translation velocity, node 2, m/s
         71    2.252E-03                                 F               0         Tower Y translation velocity, node 2, m/s
         72    2.264E-03                                 F               0         Tower Z translation velocity, node 2, m/s
         73   -4.058E-03                                 F               0         Tower X translation velocity, node 3, m/s
         74    2.713E-03                                 F               0         Tower Y translation velocity, node 3, m/s
         75    2.276E-03                                 F               0         Tower Z translation velocity, node 3, m/s
         76   -3.966E-03                                 F               0         Tower X translation velocity, node 4, m/s
         77    3.191E-03                                 F               0         Tower Y translation velocity, node 4, m/s
         78    2.289E-03                                 F               0         Tower Z translation velocity, node 4, m/s
         79   -3.875E-03                                 F               0         Tower X translation velocity, node 5, m/s
         80    3.687E-03                                 F               0         Tower Y translation velocity, node 5, m/s
         81    2.303E-03                                 F               0         Tower Z translation velocity, node 5, m/s
         82   -3.784E-03                                 F               0         Tower X translation velocity, node 6, m/s
         83    4.197E-03                                 F               0         Tower Y translation velocity, node 6, m/s
         84    2.318E-03                                 F               0         Tower Z translation velocity, node 6, m/s
         85   -3.694E-03                                 F               0         Tower X translation velocity, node 7, m/s
         86    4.719E-03                                 F               0         Tower Y translation velocity, node 7, m/s
         87    2.333E-03                                 F               0         Tower Z translation velocity, node 7, m/s
         88   -3.604E-03                                 F               0         Tower X translation velocity, node 8, m/s
         89    5.251E-03                                 F               0         Tower Y translation velocity, node 8, m/s
         90    2.349E-03                                 F               0         Tower Z translation velocity, node 8, m/s
         91   -3.514E-03                                 F               0         Tower X translation velocity, node 9, m/s
         92    5.792E-03                                 F               0         Tower Y translation velocity, node 9, m/s
         93    2.366E-03                                 F               0         Tower Z translation velocity, node 9, m/s
         94   -3.424E-03                                 F               0         Tower X translation velocity, node 10, m/s
         95    6.339E-03                                 F               0         Tower Y translation velocity, node 10, m/s
         96    2.382E-03                                 F               0         Tower Z translation velocity, node 10, m/s
         97   -3.334E-03                                 F               0         Tower X translation velocity, node 11, m/s
         98    6.890E-03                                 F               0         Tower Y translation velocity, node 11, m/s
         99    2.399E-03                                 F               0         Tower Z translation velocity, node 11, m/s
        100    1.887E+01                                 F               0         Hub X translation displacement, node 1, m
        101   -7.124E+00                                 F               0         Hub Y translation displacement, node 1, m
        102    1.570E-01                                 F               0         Hub Z translation displacement, node 1, m
        103    9.812E-01,  9.170E-03, -1.925E-01         F               0         Hub X orientation angle, node 1, rad
        104   -1.924E-01,  1.102E-01, -9.751E-01         F               0         Hub Y orientation angle, node 1, rad
        105    1.228E-02,  9.939E-01,  1.099E-01         F               0         Hub Z orientation angle, node 1, rad
        106    6.944E-01                                 F               0         Hub X rotation velocity, node 1, rad/s
        107    6.496E-03                                 F               0         Hub Y rotation velocity, node 1, rad/s
        108   -1.363E-01                                 F               0         Hub Z rotation velocity, node 1, rad/s
        109    9.865E-01,  5.896E-03, -1.635E-01         F               0         Blade root 1 X orientation angle, node 1, rad
        110   -1.632E-01,  1.104E-01, -9.804E-01         F               0         Blade root 1 Y orientation angle, node 1, rad
        111    1.228E-02,  9.939E-01,  1.099E-01         F               0         Blade root 1 Z orientation angle, node 1, rad
        112    9.776E-01, -1.473E-02, -2.098E-01         F               0         Blade root 2 X orientation angle, node 1, rad
        113    1.359E-01,  8.055E-01,  5.768E-01         F               0         Blade root 2 Y orientation angle, node 1, rad
        114    1.605E-01, -5.924E-01,  7.895E-01         F               0         Blade root 2 Z orientation angle, node 1, rad
        115    9.783E-01,  3.633E-02, -2.041E-01         F               0         Blade root 3 X orientation angle, node 1, rad
        116    1.146E-01, -9.151E-01,  3.865E-01         F               0         Blade root 3 Y orientation angle, node 1, rad
        117   -1.727E-01, -4.015E-01, -8.994E-01         F               0         Blade root 3 Z orientation angle, node 1, rad
        118    1.836E+01                                 F               0         Blade 1 X translation displacement, node 1, m
        119   -1.618E+00                                 F               0         Blade 1 Y translation displacement, node 1, m
        120   -4.744E+00                                 F               0         Blade 1 Z translation displacement, node 1, m
        121    1.824E+01                                 F               0         Blade 1 X translation displacement, node 2, m
        122   -2.909E-01                                 F               0         Blade 1 Y translation displacement, node 2, m
        123   -5.925E+00                                 F               0         Blade 1 Z translation displacement, node 2, m
        124    1.656E+01                                 F               0         Blade 1 X translation displacement, node 3, m
        125    1.775E+01                                 F               0         Blade 1 Y translation displacement, node 3, m
        126   -2.198E+01                                 F               0         Blade 1 Z translation displacement, node 3, m
        127    1.621E+01                                 F               0         Blade 1 X translation displacement, node 4, m
        128    2.159E+01                                 F               0         Blade 1 Y translation displacement, node 4, m
        129   -2.540E+01                                 F               0         Blade 1 Z translation displacement, node 4, m
        130    1.585E+01                                 F               0         Blade 1 X translation displacement, node 5, m
        131    2.544E+01                                 F               0         Blade 1 Y translation displacement, node 5, m
        132   -2.883E+01                                 F               0         Blade 1 Z translation displacement, node 5, m
        133    1.549E+01                                 F               0         Blade 1 X translation displacement, node 6, m
        134    2.928E+01                                 F               0         Blade 1 Y translation displacement, node 6, m
        135   -3.225E+01                                 F               0         Blade 1 Z translation displacement, node 6, m
        136    1.514E+01                                 F               0         Blade 1 X translation displacement, node 7, m
        137    3.313E+01                                 F               0         Blade 1 Y translation displacement, node 7, m
        138   -3.567E+01                                 F               0         Blade 1 Z translation displacement, node 7, m
        139    1.478E+01                                 F               0         Blade 1 X translation displacement, node 8, m
        140    3.697E+01                                 F               0         Blade 1 Y translation displacement, node 8, m
        141   -3.909E+01                                 F               0         Blade 1 Z translation displacement, node 8, m
        142    1.442E+01                                 F               0         Blade 1 X translation displacement, node 9, m
        143    4.081E+01                                 F               0         Blade 1 Y translation displacement, node 9, m
        144   -4.251E+01                                 F               0         Blade 1 Z translation displacement, node 9, m
        145    1.407E+01                                 F               0         Blade 1 X translation displacement, node 10, m
        146    4.466E+01                                 F               0         Blade 1 Y translation displacement, node 10, m
        147   -4.593E+01                                 F               0         Blade 1 Z translation displacement, node 10, m
        148    1.371E+01                                 F               0         Blade 1 X translation displacement, node 11, m
        149    4.850E+01                                 F               0         Blade 1 Y translation displacement, node 11, m
        150   -4.935E+01                                 F               0         Blade 1 Z translation displacement, node 11, m
        151    1.335E+01                                 F               0         Blade 1 X translation displacement, node 12, m
        152    5.235E+01                                 F               0         Blade 1 Y translation displacement, node 12, m
        153   -5.278E+01                                 F               0         Blade 1 Z translation displacement, node 12, m
        154    1.300E+01                                 F               0         Blade 1 X translation displacement, node 13, m
        155    5.619E+01                                 F               0         Blade 1 Y translation displacement, node 13, m
        156   -5.620E+01                                 F               0         Blade 1 Z translation displacement, node 13, m
        157    1.264E+01                                 F               0         Blade 1 X translation displacement, node 14, m
        158    6.003E+01                                 F               0         Blade 1 Y translation displacement, node 14, m
        159   -5.962E+01                                 F               0         Blade 1 Z translation displacement, node 14, m
        160    1.228E+01                                 F               0         Blade 1 X translation displacement, node 15, m
        161    6.388E+01                                 F               0         Blade 1 Y translation displacement, node 15, m
        162   -6.304E+01                                 F               0         Blade 1 Z translation displacement, node 15, m
        163    1.193E+01                                 F               0         Blade 1 X translation displacement, node 16, m
        164    6.772E+01                                 F               0         Blade 1 Y translation displacement, node 16, m
        165   -6.646E+01                                 F               0         Blade 1 Z translation displacement, node 16, m
        166    1.157E+01                                 F               0         Blade 1 X translation displacement, node 17, m
        167    7.157E+01                                 F               0         Blade 1 Y translation displacement, node 17, m
        168   -6.988E+01                                 F               0         Blade 1 Z translation displacement, node 17, m
        169    1.121E+01                                 F               0         Blade 1 X translation displacement, node 18, m
        170    7.541E+01                                 F               0         Blade 1 Y translation displacement, node 18, m
        171   -7.330E+01                                 F               0         Blade 1 Z translation displacement, node 18, m
        172    1.086E+01                                 F               0         Blade 1 X translation displacement, node 19, m
        173    7.925E+01                                 F               0         Blade 1 Y translation displacement, node 19, m
        174   -7.673E+01                                 F               0         Blade 1 Z translation displacement, node 19, m
        175    1.050E+01                                 F               0         Blade 1 X translation displacement, node 20, m
        176    8.310E+01                                 F               0         Blade 1 Y translation displacement, node 20, m
        177   -8.015E+01                                 F               0         Blade 1 Z translation displacement, node 20, m
        178    1.014E+01                                 F               0         Blade 1 X translation displacement, node 21, m
        179    8.694E+01                                 F               0         Blade 1 Y translation displacement, node 21, m
        180   -8.357E+01                                 F               0         Blade 1 Z translation displacement, node 21, m
        181    9.786E+00                                 F               0         Blade 1 X translation displacement, node 22, m
        182    9.079E+01                                 F               0         Blade 1 Y translation displacement, node 22, m
        183   -8.699E+01                                 F               0         Blade 1 Z translation displacement, node 22, m
        184    9.429E+00                                 F               0         Blade 1 X translation displacement, node 23, m
        185    9.463E+01                                 F               0         Blade 1 Y translation displacement, node 23, m
        186   -9.041E+01                                 F               0         Blade 1 Z translation displacement, node 23, m
        187    9.072E+00                                 F               0         Blade 1 X translation displacement, node 24, m
        188    9.847E+01                                 F               0         Blade 1 Y translation displacement, node 24, m
        189   -9.383E+01                                 F               0         Blade 1 Z translation displacement, node 24, m
        190    8.715E+00                                 F               0         Blade 1 X translation displacement, node 25, m
        191    1.023E+02                                 F               0         Blade 1 Y translation displacement, node 25, m
        192   -9.725E+01                                 F               0         Blade 1 Z translation displacement, node 25, m
        193    8.359E+00                                 F               0         Blade 1 X translation displacement, node 26, m
        194    1.062E+02                                 F               0         Blade 1 Y translation displacement, node 26, m
        195   -1.007E+02                                 F               0         Blade 1 Z translation displacement, node 26, m
        196    8.002E+00                                 F               0         Blade 1 X translation displacement, node 27, m
        197    1.100E+02                                 F               0         Blade 1 Y translation displacement, node 27, m
        198   -1.041E+02                                 F               0         Blade 1 Z translation displacement, node 27, m
        199    7.699E+00                                 F               0         Blade 1 X translation displacement, node 28, m
        200    1.133E+02                                 F               0         Blade 1 Y translation displacement, node 28, m
        201   -1.070E+02                                 F               0         Blade 1 Z translation displacement, node 28, m
        202    9.524E-01, -4.511E-02,  3.015E-01         F               0         Blade 1 X orientation angle, node 1, rad
        203    3.046E-01,  1.010E-01, -9.471E-01         F               0         Blade 1 Y orientation angle, node 1, rad
        204    1.228E-02,  9.939E-01,  1.099E-01         F               0         Blade 1 Z orientation angle, node 1, rad
        205    9.524E-01, -4.511E-02,  3.015E-01         F               0         Blade 1 X orientation angle, node 2, rad
        206    3.046E-01,  1.010E-01, -9.471E-01         F               0         Blade 1 Y orientation angle, node 2, rad
        207    1.228E-02,  9.939E-01,  1.099E-01         F               0         Blade 1 Z orientation angle, node 2, rad
        208    9.975E-01, -1.989E-02,  6.847E-02         F               0         Blade 1 X orientation angle, node 3, rad
        209    7.023E-02,  1.088E-01, -9.916E-01         F               0         Blade 1 Y orientation angle, node 3, rad
        210    1.228E-02,  9.939E-01,  1.099E-01         F               0         Blade 1 Z orientation angle, node 3, rad
        211    9.995E-01, -1.528E-02,  2.654E-02         F               0         Blade 1 X orientation angle, node 4, rad
        212    2.806E-02,  1.095E-01, -9.936E-01         F               0         Blade 1 Y orientation angle, node 4, rad
        213    1.228E-02,  9.939E-01,  1.099E-01         F               0         Blade 1 Z orientation angle, node 4, rad
        214    9.999E-01, -1.164E-02, -6.419E-03         F               0         Blade 1 X orientation angle, node 5, rad
        215   -5.100E-03,  1.100E-01, -9.939E-01         F               0         Blade 1 Y orientation angle, node 5, rad
        216    1.228E-02,  9.939E-01,  1.099E-01         F               0         Blade 1 Z orientation angle, node 5, rad
        217    9.994E-01, -8.722E-03, -3.278E-02         F               0         Blade 1 X orientation angle, node 6, rad
        218   -3.162E-02,  1.102E-01, -9.934E-01         F               0         Blade 1 Y orientation angle, node 6, rad
        219    1.228E-02,  9.939E-01,  1.099E-01         F               0         Blade 1 Z orientation angle, node 6, rad
        220    9.985E-01, -6.315E-03, -5.444E-02         F               0         Blade 1 X orientation angle, node 7, rad
        221   -5.342E-02,  1.104E-01, -9.924E-01         F               0         Blade 1 Y orientation angle, node 7, rad
        222    1.228E-02,  9.939E-01,  1.099E-01         F               0         Blade 1 Z orientation angle, node 7, rad
        223    9.974E-01, -4.310E-03, -7.245E-02         F               0         Blade 1 X orientation angle, node 8, rad
        224   -7.153E-02,  1.105E-01, -9.913E-01         F               0         Blade 1 Y orientation angle, node 8, rad
        225    1.228E-02,  9.939E-01,  1.099E-01         F               0         Blade 1 Z orientation angle, node 8, rad
        226    9.961E-01, -2.612E-03, -8.766E-02         F               0         Blade 1 X orientation angle, node 9, rad
        227   -8.684E-02,  1.106E-01, -9.901E-01         F               0         Blade 1 Y orientation angle, node 9, rad