
Linearized model: Predictions were generated on 11-Jan-2024 at 12:32:35 using OpenFAST, compiled as a 64-bit application using single precision at commit v3.5.1
 linked with  NWTC Subroutine Library; ElastoDyn; InflowWind; AeroDyn; ServoDyn; HydroDyn; MoorDyn (v2.0.0, 2023-09-18)

Description from the FAST input file: CCT-9 Campign 4 model. Input files to be run with OpenFAST 3.5.0. GitHub branch from Lu Wang (https://github.com/luwang00/openfast/tree/dev) compiled on March 7, 2023.

Simulation information:
   Simulation time:                   501.0000 s
   Rotor Speed:                         0.7077 rad/s
   Azimuth:                             4.2477 rad
   Wind Speed:                          8.0000 m/s
   Number of continuous states:        22
   Number of discrete states:           0
   Number of constraint states:         0
   Number of inputs:                 4033
   Number of outputs:                  55
   Jacobians included in this file?    No

Order of continuous states:
   Row/Column Operating Point                     Rotating Frame? Derivative Order Description
   ---------- ---------------                     --------------- ---------------- -----------
          1    5.766E+00                                 F               2         ED Platform horizontal surge translation DOF (internal DOF index = DOF_Sg), m
          2   -4.501E-01                                 F               2         ED Platform horizontal sway translation DOF (internal DOF index = DOF_Sw), m
          3   -8.712E-02                                 F               2         ED Platform vertical heave translation DOF (internal DOF index = DOF_Hv), m
          4    4.337E-02                                 F               2         ED Platform roll tilt rotation DOF (internal DOF index = DOF_R), rad
          5    8.423E-02                                 F               2         ED Platform pitch tilt rotation DOF (internal DOF index = DOF_P), rad
          6    2.444E-03                                 F               2         ED Platform yaw rotation DOF (internal DOF index = DOF_Y), rad
          7    4.622E-01                                 F               2         ED 1st tower fore-aft bending mode DOF (internal DOF index = DOF_TFA1), m
          8    1.675E-01                                 F               2         ED 1st tower side-to-side bending mode DOF (internal DOF index = DOF_TSS1), m
          9    1.462E-03                                 F               2         ED 2nd tower fore-aft bending mode DOF (internal DOF index = DOF_TFA2), m
         10    7.431E-05                                 F               2         ED 2nd tower side-to-side bending mode DOF (internal DOF index = DOF_TSS2), m
         11    2.677E+00                                 F               2         ED Variable speed generator DOF (internal DOF index = DOF_GeAz), rad
         12   -4.089E-03                                 F               2         ED First time derivative of Platform horizontal surge translation DOF (internal DOF index = DOF_Sg), m/s
         13    1.365E-03                                 F               2         ED First time derivative of Platform horizontal sway translation DOF (internal DOF index = DOF_Sw), m/s
         14    1.393E-03                                 F               2         ED First time derivative of Platform vertical heave translation DOF (internal DOF index = DOF_Hv), m/s
         15   -5.144E-05                                 F               2         ED First time derivative of Platform roll tilt rotation DOF (internal DOF index = DOF_R), rad/s
         16    1.105E-05                                 F               2         ED First time derivative of Platform pitch tilt rotation DOF (internal DOF index = DOF_P), rad/s
         17    1.224E-05                                 F               2         ED First time derivative of Platform yaw rotation DOF (internal DOF index = DOF_Y), rad/s
         18   -4.657E-04                                 F               2         ED First time derivative of 1st tower fore-aft bending mode DOF (internal DOF index = DOF_TFA1), m/s
         19   -8.203E-04                                 F               2         ED First time derivative of 1st tower side-to-side bending mode DOF (internal DOF index = DOF_TSS1), m/s
         20    2.147E-06                                 F               2         ED First time derivative of 2nd tower fore-aft bending mode DOF (internal DOF index = DOF_TFA2), m/s
         21    4.449E-07                                 F               2         ED First time derivative of 2nd tower side-to-side bending mode DOF (internal DOF index = DOF_TSS2), m/s
         22    7.077E-01                                 F               2         ED First time derivative of Variable speed generator DOF (internal DOF index = DOF_GeAz), rad/s

Order of continuous state derivatives:
   Row/Column Operating Point                     Rotating Frame? Derivative Order Description
   ---------- ---------------                     --------------- ---------------- -----------
          1   -4.089E-03                                 F               2         First time derivative of ED Platform horizontal surge translation DOF (internal DOF index = DOF_Sg), m/s
          2    1.365E-03                                 F               2         First time derivative of ED Platform horizontal sway translation DOF (internal DOF index = DOF_Sw), m/s
          3    1.393E-03                                 F               2         First time derivative of ED Platform vertical heave translation DOF (internal DOF index = DOF_Hv), m/s
          4   -5.144E-05                                 F               2         First time derivative of ED Platform roll tilt rotation DOF (internal DOF index = DOF_R), rad/s
          5    1.105E-05                                 F               2         First time derivative of ED Platform pitch tilt rotation DOF (internal DOF index = DOF_P), rad/s
          6    1.224E-05                                 F               2         First time derivative of ED Platform yaw rotation DOF (internal DOF index = DOF_Y), rad/s
          7   -4.657E-04                                 F               2         First time derivative of ED 1st tower fore-aft bending mode DOF (internal DOF index = DOF_TFA1), m/s
          8   -8.203E-04                                 F               2         First time derivative of ED 1st tower side-to-side bending mode DOF (internal DOF index = DOF_TSS1), m/s
          9    2.147E-06                                 F               2         First time derivative of ED 2nd tower fore-aft bending mode DOF (internal DOF index = DOF_TFA2), m/s
         10    4.449E-07                                 F               2         First time derivative of ED 2nd tower side-to-side bending mode DOF (internal DOF index = DOF_TSS2), m/s
         11    7.077E-01                                 F               2         First time derivative of ED Variable speed generator DOF (internal DOF index = DOF_GeAz), rad/s
         12   -3.507E-04                                 F               2         First time derivative of ED First time derivative of Platform horizontal surge translation DOF (internal DOF index = DOF_Sg), m/s/s
         13   -3.279E-04                                 F               2         First time derivative of ED First time derivative of Platform horizontal sway translation DOF (internal DOF index = DOF_Sw), m/s/s
         14    1.183E-03                                 F               2         First time derivative of ED First time derivative of Platform vertical heave translation DOF (internal DOF index = DOF_Hv), m/s/s
         15    2.727E-05                                 F               2         First time derivative of ED First time derivative of Platform roll tilt rotation DOF (internal DOF index = DOF_R), rad/s/s
         16   -9.979E-07                                 F               2         First time derivative of ED First time derivative of Platform pitch tilt rotation DOF (internal DOF index = DOF_P), rad/s/s
         17   -3.904E-06                                 F               2         First time derivative of ED First time derivative of Platform yaw rotation DOF (internal DOF index = DOF_Y), rad/s/s
         18   -3.390E-04                                 F               2         First time derivative of ED First time derivative of 1st tower fore-aft bending mode DOF (internal DOF index = DOF_TFA1), m/s/s
         19   -4.644E-05                                 F               2         First time derivative of ED First time derivative of 1st tower side-to-side bending mode DOF (internal DOF index = DOF_TSS1), m/s/s
         20    1.505E-06                                 F               2         First time derivative of ED First time derivative of 2nd tower fore-aft bending mode DOF (internal DOF index = DOF_TFA2), m/s/s
         21    2.110E-06                                 F               2         First time derivative of ED First time derivative of 2nd tower side-to-side bending mode DOF (internal DOF index = DOF_TSS2), m/s/s
         22   -2.025E-05                                 F               2         First time derivative of ED First time derivative of Variable speed generator DOF (internal DOF index = DOF_GeAz), rad/s/s

Order of inputs:
     Column   Operating Point                     Rotating Frame? Derivative Order Description
   ---------- ---------------                     --------------- ---------------- -----------
          1   -1.080E+01                                 F               0         IfW X-component position of node 1 (hub), m
          2    0.000E+00                                 F               0         IfW Y-component position of node 1 (hub), m
          3    1.497E+02                                 F               0         IfW Z-component position of node 1 (hub), m
          4    7.595E+00                                 F               0         IfW X-component position of node 2 (blade 1, node 1), m
          5   -2.072E+00                                 F               0         IfW Y-component position of node 2 (blade 1, node 1), m
          6    1.477E+02                                 F               0         IfW Z-component position of node 2 (blade 1, node 1), m
          7    7.479E+00                                 F               0         IfW X-component position of node 3 (blade 1, node 2), m
          8   -8.536E-01                                 F               0         IfW Y-component position of node 3 (blade 1, node 2), m
          9    1.472E+02                                 F               0         IfW Z-component position of node 3 (blade 1, node 2), m
         10    5.904E+00                                 F               0         IfW X-component position of node 4 (blade 1, node 3), m
         11    1.572E+01                                 F               0         IfW Y-component position of node 4 (blade 1, node 3), m
         12    1.399E+02                                 F               0         IfW Z-component position of node 4 (blade 1, node 3), m
         13    5.568E+00                                 F               0         IfW X-component position of node 5 (blade 1, node 4), m
         14    1.925E+01                                 F               0         IfW Y-component position of node 5 (blade 1, node 4), m
         15    1.384E+02                                 F               0         IfW Z-component position of node 5 (blade 1, node 4), m
         16    5.232E+00                                 F               0         IfW X-component position of node 6 (blade 1, node 5), m
         17    2.278E+01                                 F               0         IfW Y-component position of node 6 (blade 1, node 5), m
         18    1.368E+02                                 F               0         IfW Z-component position of node 6 (blade 1, node 5), m
         19    4.897E+00                                 F               0         IfW X-component position of node 7 (blade 1, node 6), m
         20    2.631E+01                                 F               0         IfW Y-component position of node 7 (blade 1, node 6), m
         21    1.353E+02                                 F               0         IfW Z-component position of node 7 (blade 1, node 6), m
         22    4.561E+00                                 F               0         IfW X-component position of node 8 (blade 1, node 7), m
         23    2.984E+01                                 F               0         IfW Y-component position of node 8 (blade 1, node 7), m
         24    1.337E+02                                 F               0         IfW Z-component position of node 8 (blade 1, node 7), m
         25    4.225E+00                                 F               0         IfW X-component position of node 9 (blade 1, node 8), m
         26    3.337E+01                                 F               0         IfW Y-component position of node 9 (blade 1, node 8), m
         27    1.322E+02                                 F               0         IfW Z-component position of node 9 (blade 1, node 8), m
         28    3.890E+00                                 F               0         IfW X-component position of node 10 (blade 1, node 9), m
         29    3.690E+01                                 F               0         IfW Y-component position of node 10 (blade 1, node 9), m
         30    1.307E+02                                 F               0         IfW Z-component position of node 10 (blade 1, node 9), m
         31    3.554E+00                                 F               0         IfW X-component position of node 11 (blade 1, node 10), m
         32    4.043E+01                                 F               0         IfW Y-component position of node 11 (blade 1, node 10), m
         33    1.291E+02                                 F               0         IfW Z-component position of node 11 (blade 1, node 10), m
         34    3.218E+00                                 F               0         IfW X-component position of node 12 (blade 1, node 11), m
         35    4.397E+01                                 F               0         IfW Y-component position of node 12 (blade 1, node 11), m
         36    1.276E+02                                 F               0         IfW Z-component position of node 12 (blade 1, node 11), m
         37    2.883E+00                                 F               0         IfW X-component position of node 13 (blade 1, node 12), m
         38    4.750E+01                                 F               0         IfW Y-component position of node 13 (blade 1, node 12), m
         39    1.260E+02                                 F               0         IfW Z-component position of node 13 (blade 1, node 12), m
         40    2.547E+00                                 F               0         IfW X-component position of node 14 (blade 1, node 13), m
         41    5.103E+01                                 F               0         IfW Y-component position of node 14 (blade 1, node 13), m
         42    1.245E+02                                 F               0         IfW Z-component position of node 14 (blade 1, node 13), m
         43    2.212E+00                                 F               0         IfW X-component position of node 15 (blade 1, node 14), m
         44    5.456E+01                                 F               0         IfW Y-component position of node 15 (blade 1, node 14), m
         45    1.229E+02                                 F               0         IfW Z-component position of node 15 (blade 1, node 14), m
         46    1.876E+00                                 F               0         IfW X-component position of node 16 (blade 1, node 15), m
         47    5.809E+01                                 F               0         IfW Y-component position of node 16 (blade 1, node 15), m
         48    1.214E+02                                 F               0         IfW Z-component position of node 16 (blade 1, node 15), m
         49    1.540E+00                                 F               0         IfW X-component position of node 17 (blade 1, node 16), m
         50    6.162E+01                                 F               0         IfW Y-component position of node 17 (blade 1, node 16), m
         51    1.199E+02                                 F               0         IfW Z-component position of node 17 (blade 1, node 16), m
         52    1.205E+00                                 F               0         IfW X-component position of node 18 (blade 1, node 17), m
         53    6.515E+01                                 F               0         IfW Y-component position of node 18 (blade 1, node 17), m
         54    1.183E+02                                 F               0         IfW Z-component position of node 18 (blade 1, node 17), m
         55    8.690E-01                                 F               0         IfW X-component position of node 19 (blade 1, node 18), m
         56    6.868E+01                                 F               0         IfW Y-component position of node 19 (blade 1, node 18), m
         57    1.168E+02                                 F               0         IfW Z-component position of node 19 (blade 1, node 18), m
         58    5.333E-01                                 F               0         IfW X-component position of node 20 (blade 1, node 19), m
         59    7.221E+01                                 F               0         IfW Y-component position of node 20 (blade 1, node 19), m
         60    1.152E+02                                 F               0         IfW Z-component position of node 20 (blade 1, node 19), m
         61    1.977E-01                                 F               0         IfW X-component position of node 21 (blade 1, node 20), m
         62    7.574E+01                                 F               0         IfW Y-component position of node 21 (blade 1, node 20), m
         63    1.137E+02                                 F               0         IfW Z-component position of node 21 (blade 1, node 20), m
         64   -1.379E-01                                 F               0         IfW X-component position of node 22 (blade 1, node 21), m
         65    7.927E+01                                 F               0         IfW Y-component position of node 22 (blade 1, node 21), m
         66    1.122E+02                                 F               0         IfW Z-component position of node 22 (blade 1, node 21), m
         67   -4.736E-01                                 F               0         IfW X-component position of node 23 (blade 1, node 22), m
         68    8.281E+01                                 F               0         IfW Y-component position of node 23 (blade 1, node 22), m
         69    1.106E+02                                 F               0         IfW Z-component position of node 23 (blade 1, node 22), m
         70   -8.092E-01                                 F               0         IfW X-component position of node 24 (blade 1, node 23), m
         71    8.634E+01                                 F               0         IfW Y-component position of node 24 (blade 1, node 23), m
         72    1.091E+02                                 F               0         IfW Z-component position of node 24 (blade 1, node 23), m
         73   -1.145E+00                                 F               0         IfW X-component position of node 25 (blade 1, node 24), m
         74    8.987E+01                                 F               0         IfW Y-component position of node 25 (blade 1, node 24), m
         75    1.075E+02                                 F               0         IfW Z-component position of node 25 (blade 1, node 24), m
         76   -1.480E+00                                 F               0         IfW X-component position of node 26 (blade 1, node 25), m
         77    9.340E+01                                 F               0         IfW Y-component position of node 26 (blade 1, node 25), m
         78    1.060E+02                                 F               0         IfW Z-component position of node 26 (blade 1, node 25), m
         79   -1.816E+00                                 F               0         IfW X-component position of node 27 (blade 1, node 26), m
         80    9.693E+01                                 F               0         IfW Y-component position of node 27 (blade 1, node 26), m
         81    1.044E+02                                 F               0         IfW Z-component position of node 27 (blade 1, node 26), m
         82   -2.152E+00                                 F               0         IfW X-component position of node 28 (blade 1, node 27), m
         83    1.005E+02                                 F               0         IfW Y-component position of node 28 (blade 1, node 27), m
         84    1.029E+02                                 F               0         IfW Z-component position of node 28 (blade 1, node 27), m
         85   -2.436E+00                                 F               0         IfW X-component position of node 29 (blade 1, node 28), m
         86    1.035E+02                                 F               0         IfW Y-component position of node 29 (blade 1, node 28), m
         87    1.016E+02                                 F               0         IfW Z-component position of node 29 (blade 1, node 28), m
         88    9.142E+00                                 F               0         IfW X-component position of node 30 (blade 2, node 1), m
         89   -7.701E+00                                 F               0         IfW Y-component position of node 30 (blade 2, node 1), m
         90    1.553E+02                                 F               0         IfW Z-component position of node 30 (blade 2, node 1), m
         91    9.399E+00                                 F               0         IfW X-component position of node 31 (blade 2, node 2), m
         92   -7.839E+00                                 F               0         IfW Y-component position of node 31 (blade 2, node 2), m
         93    1.566E+02                                 F               0         IfW Z-component position of node 31 (blade 2, node 2), m
         94    1.289E+01                                 F               0         IfW X-component position of node 32 (blade 2, node 3), m
         95   -9.711E+00                                 F               0         IfW Y-component position of node 32 (blade 2, node 3), m
         96    1.743E+02                                 F               0         IfW Z-component position of node 32 (blade 2, node 3), m
         97    1.364E+01                                 F               0         IfW X-component position of node 33 (blade 2, node 4), m
         98   -1.011E+01                                 F               0         IfW Y-component position of node 33 (blade 2, node 4), m
         99    1.781E+02                                 F               0         IfW Z-component position of node 33 (blade 2, node 4), m
        100    1.438E+01                                 F               0         IfW X-component position of node 34 (blade 2, node 5), m
        101   -1.051E+01                                 F               0         IfW Y-component position of node 34 (blade 2, node 5), m
        102    1.819E+02                                 F               0         IfW Z-component position of node 34 (blade 2, node 5), m
        103    1.513E+01                                 F               0         IfW X-component position of node 35 (blade 2, node 6), m
        104   -1.091E+01                                 F               0         IfW Y-component position of node 35 (blade 2, node 6), m
        105    1.856E+02                                 F               0         IfW Z-component position of node 35 (blade 2, node 6), m
        106    1.587E+01                                 F               0         IfW X-component position of node 36 (blade 2, node 7), m
        107   -1.131E+01                                 F               0         IfW Y-component position of node 36 (blade 2, node 7), m
        108    1.894E+02                                 F               0         IfW Z-component position of node 36 (blade 2, node 7), m
        109    1.661E+01                                 F               0         IfW X-component position of node 37 (blade 2, node 8), m
        110   -1.170E+01                                 F               0         IfW Y-component position of node 37 (blade 2, node 8), m
        111    1.932E+02                                 F               0         IfW Z-component position of node 37 (blade 2, node 8), m
        112    1.736E+01                                 F               0         IfW X-component position of node 38 (blade 2, node 9), m
        113   -1.210E+01                                 F               0         IfW Y-component position of node 38 (blade 2, node 9), m
        114    1.970E+02                                 F               0         IfW Z-component position of node 38 (blade 2, node 9), m
        115    1.810E+01                                 F               0         IfW X-component position of node 39 (blade 2, node 10), m
        116   -1.250E+01                                 F               0         IfW Y-component position of node 39 (blade 2, node 10), m
        117    2.007E+02                                 F               0         IfW Z-component position of node 39 (blade 2, node 10), m
        118    1.885E+01                                 F               0         IfW X-component position of node 40 (blade 2, node 11), m
        119   -1.290E+01                                 F               0         IfW Y-component position of node 40 (blade 2, node 11), m
        120    2.045E+02                                 F               0         IfW Z-component position of node 40 (blade 2, node 11), m
        121    1.959E+01                                 F               0         IfW X-component position of node 41 (blade 2, node 12), m
        122   -1.330E+01                                 F               0         IfW Y-component position of node 41 (blade 2, node 12), m
        123    2.083E+02                                 F               0         IfW Z-component position of node 41 (blade 2, node 12), m
        124    2.034E+01                                 F               0         IfW X-component position of node 42 (blade 2, node 13), m
        125   -1.370E+01                                 F               0         IfW Y-component position of node 42 (blade 2, node 13), m
        126    2.121E+02                                 F               0         IfW Z-component position of node 42 (blade 2, node 13), m
        127    2.108E+01                                 F               0         IfW X-component position of node 43 (blade 2, node 14), m
        128   -1.410E+01                                 F               0         IfW Y-component position of node 43 (blade 2, node 14), m
        129    2.158E+02                                 F               0         IfW Z-component position of node 43 (blade 2, node 14), m
        130    2.182E+01                                 F               0         IfW X-component position of node 44 (blade 2, node 15), m
        131   -1.450E+01                                 F               0         IfW Y-component position of node 44 (blade 2, node 15), m
        132    2.196E+02                                 F               0         IfW Z-component position of node 44 (blade 2, node 15), m
        133    2.257E+01                                 F               0         IfW X-component position of node 45 (blade 2, node 16), m
        134   -1.490E+01                                 F               0         IfW Y-component position of node 45 (blade 2, node 16), m
        135    2.234E+02                                 F               0         IfW Z-component position of node 45 (blade 2, node 16), m
        136    2.331E+01                                 F               0         IfW X-component position of node 46 (blade 2, node 17), m
        137   -1.529E+01                                 F               0         IfW Y-component position of node 46 (blade 2, node 17), m
        138    2.272E+02                                 F               0         IfW Z-component position of node 46 (blade 2, node 17), m
        139    2.406E+01                                 F               0         IfW X-component position of node 47 (blade 2, node 18), m
        140   -1.569E+01                                 F               0         IfW Y-component position of node 47 (blade 2, node 18), m
        141    2.309E+02                                 F               0         IfW Z-component position of node 47 (blade 2, node 18), m
        142    2.480E+01                                 F               0         IfW X-component position of node 48 (blade 2, node 19), m
        143   -1.609E+01                                 F               0         IfW Y-component position of node 48 (blade 2, node 19), m
        144    2.347E+02                                 F               0         IfW Z-component position of node 48 (blade 2, node 19), m