
Linearized model: Predictions were generated on 11-Jan-2024 at 12:32:35 using OpenFAST, compiled as a 64-bit application using single precision at commit v3.5.1
 linked with  NWTC Subroutine Library; ElastoDyn; InflowWind; AeroDyn; ServoDyn; HydroDyn; MoorDyn (v2.0.0, 2023-09-18)

Description from the FAST input file: CCT-9 Campign 4 model. Input files to be run with OpenFAST 3.5.0. GitHub branch from Lu Wang (https://github.com/luwang00/openfast/tree/dev) compiled on March 7, 2023.

Simulation information:
   Simulation time:                   504.7000 s
   Rotor Speed:                         0.7073 rad/s
   Azimuth:                             0.5823 rad
   Wind Speed:                          8.0000 m/s
   Number of continuous states:        22
   Number of discrete states:           0
   Number of constraint states:         0
   Number of inputs:                 4033
   Number of outputs:                  55
   Jacobians included in this file?    No

Order of continuous states:
   Row/Column Operating Point                     Rotating Frame? Derivative Order Description
   ---------- ---------------                     --------------- ---------------- -----------
          1    5.749E+00                                 F               2         ED Platform horizontal surge translation DOF (internal DOF index = DOF_Sg), m
          2   -4.460E-01                                 F               2         ED Platform horizontal sway translation DOF (internal DOF index = DOF_Sw), m
          3   -7.544E-02                                 F               2         ED Platform vertical heave translation DOF (internal DOF index = DOF_Hv), m
          4    4.329E-02                                 F               2         ED Platform roll tilt rotation DOF (internal DOF index = DOF_R), rad
          5    8.425E-02                                 F               2         ED Platform pitch tilt rotation DOF (internal DOF index = DOF_P), rad
          6    2.449E-03                                 F               2         ED Platform yaw rotation DOF (internal DOF index = DOF_Y), rad
          7    4.626E-01                                 F               2         ED 1st tower fore-aft bending mode DOF (internal DOF index = DOF_TFA1), m
          8    1.665E-01                                 F               2         ED 1st tower side-to-side bending mode DOF (internal DOF index = DOF_TSS1), m
          9    1.458E-03                                 F               2         ED 2nd tower fore-aft bending mode DOF (internal DOF index = DOF_TFA2), m
         10    7.466E-05                                 F               2         ED 2nd tower side-to-side bending mode DOF (internal DOF index = DOF_TSS2), m
         11    5.295E+00                                 F               2         ED Variable speed generator DOF (internal DOF index = DOF_GeAz), rad
         12   -5.093E-03                                 F               2         ED First time derivative of Platform horizontal surge translation DOF (internal DOF index = DOF_Sg), m/s
         13    9.241E-04                                 F               2         ED First time derivative of Platform horizontal sway translation DOF (internal DOF index = DOF_Sw), m/s
         14    4.371E-03                                 F               2         ED First time derivative of Platform vertical heave translation DOF (internal DOF index = DOF_Hv), m/s
         15    4.273E-06                                 F               2         ED First time derivative of Platform roll tilt rotation DOF (internal DOF index = DOF_R), rad/s
         16    9.456E-06                                 F               2         ED First time derivative of Platform pitch tilt rotation DOF (internal DOF index = DOF_P), rad/s
         17   -9.435E-06                                 F               2         ED First time derivative of Platform yaw rotation DOF (internal DOF index = DOF_Y), rad/s
         18   -5.095E-05                                 F               2         ED First time derivative of 1st tower fore-aft bending mode DOF (internal DOF index = DOF_TFA1), m/s
         19    3.689E-04                                 F               2         ED First time derivative of 1st tower side-to-side bending mode DOF (internal DOF index = DOF_TSS1), m/s
         20   -2.057E-07                                 F               2         ED First time derivative of 2nd tower fore-aft bending mode DOF (internal DOF index = DOF_TFA2), m/s
         21   -2.907E-07                                 F               2         ED First time derivative of 2nd tower side-to-side bending mode DOF (internal DOF index = DOF_TSS2), m/s
         22    7.073E-01                                 F               2         ED First time derivative of Variable speed generator DOF (internal DOF index = DOF_GeAz), rad/s

Order of continuous state derivatives:
   Row/Column Operating Point                     Rotating Frame? Derivative Order Description
   ---------- ---------------                     --------------- ---------------- -----------
          1   -5.093E-03                                 F               2         First time derivative of ED Platform horizontal surge translation DOF (internal DOF index = DOF_Sg), m/s
          2    9.241E-04                                 F               2         First time derivative of ED Platform horizontal sway translation DOF (internal DOF index = DOF_Sw), m/s
          3    4.371E-03                                 F               2         First time derivative of ED Platform vertical heave translation DOF (internal DOF index = DOF_Hv), m/s
          4    4.273E-06                                 F               2         First time derivative of ED Platform roll tilt rotation DOF (internal DOF index = DOF_R), rad/s
          5    9.456E-06                                 F               2         First time derivative of ED Platform pitch tilt rotation DOF (internal DOF index = DOF_P), rad/s
          6   -9.435E-06                                 F               2         First time derivative of ED Platform yaw rotation DOF (internal DOF index = DOF_Y), rad/s
          7   -5.095E-05                                 F               2         First time derivative of ED 1st tower fore-aft bending mode DOF (internal DOF index = DOF_TFA1), m/s
          8    3.689E-04                                 F               2         First time derivative of ED 1st tower side-to-side bending mode DOF (internal DOF index = DOF_TSS1), m/s
          9   -2.057E-07                                 F               2         First time derivative of ED 2nd tower fore-aft bending mode DOF (internal DOF index = DOF_TFA2), m/s
         10   -2.907E-07                                 F               2         First time derivative of ED 2nd tower side-to-side bending mode DOF (internal DOF index = DOF_TSS2), m/s
         11    7.073E-01                                 F               2         First time derivative of ED Variable speed generator DOF (internal DOF index = DOF_GeAz), rad/s
         12   -2.188E-04                                 F               2         First time derivative of ED First time derivative of Platform horizontal surge translation DOF (internal DOF index = DOF_Sg), m/s/s
         13   -2.017E-04                                 F               2         First time derivative of ED First time derivative of Platform horizontal sway translation DOF (internal DOF index = DOF_Sw), m/s/s
         14    2.748E-04                                 F               2         First time derivative of ED First time derivative of Platform vertical heave translation DOF (internal DOF index = DOF_Hv), m/s/s
         15    1.951E-05                                 F               2         First time derivative of ED First time derivative of Platform roll tilt rotation DOF (internal DOF index = DOF_R), rad/s/s
         16   -1.982E-06                                 F               2         First time derivative of ED First time derivative of Platform pitch tilt rotation DOF (internal DOF index = DOF_P), rad/s/s
         17   -5.059E-06                                 F               2         First time derivative of ED First time derivative of Platform yaw rotation DOF (internal DOF index = DOF_Y), rad/s/s
         18    1.054E-03                                 F               2         First time derivative of ED First time derivative of 1st tower fore-aft bending mode DOF (internal DOF index = DOF_TFA1), m/s/s
         19    2.581E-04                                 F               2         First time derivative of ED First time derivative of 1st tower side-to-side bending mode DOF (internal DOF index = DOF_TSS1), m/s/s
         20   -6.720E-06                                 F               2         First time derivative of ED First time derivative of 2nd tower fore-aft bending mode DOF (internal DOF index = DOF_TFA2), m/s/s
         21    2.956E-07                                 F               2         First time derivative of ED First time derivative of 2nd tower side-to-side bending mode DOF (internal DOF index = DOF_TSS2), m/s/s
         22   -6.741E-05                                 F               2         First time derivative of ED First time derivative of Variable speed generator DOF (internal DOF index = DOF_GeAz), rad/s/s

Order of inputs:
     Column   Operating Point                     Rotating Frame? Derivative Order Description
   ---------- ---------------                     --------------- ---------------- -----------
          1   -1.080E+01                                 F               0         IfW X-component position of node 1 (hub), m
          2    0.000E+00                                 F               0         IfW Y-component position of node 1 (hub), m
          3    1.497E+02                                 F               0         IfW Z-component position of node 1 (hub), m
          4    8.956E+00                                 F               0         IfW X-component position of node 2 (blade 1, node 1), m
          5   -1.036E+01                                 F               0         IfW Y-component position of node 2 (blade 1, node 1), m
          6    1.543E+02                                 F               0         IfW Z-component position of node 2 (blade 1, node 1), m
          7    9.171E+00                                 F               0         IfW X-component position of node 3 (blade 1, node 2), m
          8   -1.114E+01                                 F               0         IfW Y-component position of node 3 (blade 1, node 2), m
          9    1.554E+02                                 F               0         IfW Z-component position of node 3 (blade 1, node 2), m
         10    1.210E+01                                 F               0         IfW X-component position of node 4 (blade 1, node 3), m
         11   -2.179E+01                                 F               0         IfW Y-component position of node 4 (blade 1, node 3), m
         12    1.698E+02                                 F               0         IfW Z-component position of node 4 (blade 1, node 3), m
         13    1.272E+01                                 F               0         IfW X-component position of node 5 (blade 1, node 4), m
         14   -2.406E+01                                 F               0         IfW Y-component position of node 5 (blade 1, node 4), m
         15    1.728E+02                                 F               0         IfW Z-component position of node 5 (blade 1, node 4), m
         16    1.335E+01                                 F               0         IfW X-component position of node 6 (blade 1, node 5), m
         17   -2.632E+01                                 F               0         IfW Y-component position of node 6 (blade 1, node 5), m
         18    1.759E+02                                 F               0         IfW Z-component position of node 6 (blade 1, node 5), m
         19    1.397E+01                                 F               0         IfW X-component position of node 7 (blade 1, node 6), m
         20   -2.859E+01                                 F               0         IfW Y-component position of node 7 (blade 1, node 6), m
         21    1.790E+02                                 F               0         IfW Z-component position of node 7 (blade 1, node 6), m
         22    1.459E+01                                 F               0         IfW X-component position of node 8 (blade 1, node 7), m
         23   -3.086E+01                                 F               0         IfW Y-component position of node 8 (blade 1, node 7), m
         24    1.821E+02                                 F               0         IfW Z-component position of node 8 (blade 1, node 7), m
         25    1.522E+01                                 F               0         IfW X-component position of node 9 (blade 1, node 8), m
         26   -3.313E+01                                 F               0         IfW Y-component position of node 9 (blade 1, node 8), m
         27    1.851E+02                                 F               0         IfW Z-component position of node 9 (blade 1, node 8), m
         28    1.584E+01                                 F               0         IfW X-component position of node 10 (blade 1, node 9), m
         29   -3.540E+01                                 F               0         IfW Y-component position of node 10 (blade 1, node 9), m
         30    1.882E+02                                 F               0         IfW Z-component position of node 10 (blade 1, node 9), m
         31    1.646E+01                                 F               0         IfW X-component position of node 11 (blade 1, node 10), m
         32   -3.766E+01                                 F               0         IfW Y-component position of node 11 (blade 1, node 10), m
         33    1.913E+02                                 F               0         IfW Z-component position of node 11 (blade 1, node 10), m
         34    1.709E+01                                 F               0         IfW X-component position of node 12 (blade 1, node 11), m
         35   -3.993E+01                                 F               0         IfW Y-component position of node 12 (blade 1, node 11), m
         36    1.943E+02                                 F               0         IfW Z-component position of node 12 (blade 1, node 11), m
         37    1.771E+01                                 F               0         IfW X-component position of node 13 (blade 1, node 12), m
         38   -4.220E+01                                 F               0         IfW Y-component position of node 13 (blade 1, node 12), m
         39    1.974E+02                                 F               0         IfW Z-component position of node 13 (blade 1, node 12), m
         40    1.834E+01                                 F               0         IfW X-component position of node 14 (blade 1, node 13), m
         41   -4.447E+01                                 F               0         IfW Y-component position of node 14 (blade 1, node 13), m
         42    2.005E+02                                 F               0         IfW Z-component position of node 14 (blade 1, node 13), m
         43    1.896E+01                                 F               0         IfW X-component position of node 15 (blade 1, node 14), m
         44   -4.673E+01                                 F               0         IfW Y-component position of node 15 (blade 1, node 14), m
         45    2.035E+02                                 F               0         IfW Z-component position of node 15 (blade 1, node 14), m
         46    1.958E+01                                 F               0         IfW X-component position of node 16 (blade 1, node 15), m
         47   -4.900E+01                                 F               0         IfW Y-component position of node 16 (blade 1, node 15), m
         48    2.066E+02                                 F               0         IfW Z-component position of node 16 (blade 1, node 15), m
         49    2.021E+01                                 F               0         IfW X-component position of node 17 (blade 1, node 16), m
         50   -5.127E+01                                 F               0         IfW Y-component position of node 17 (blade 1, node 16), m
         51    2.097E+02                                 F               0         IfW Z-component position of node 17 (blade 1, node 16), m
         52    2.083E+01                                 F               0         IfW X-component position of node 18 (blade 1, node 17), m
         53   -5.354E+01                                 F               0         IfW Y-component position of node 18 (blade 1, node 17), m
         54    2.128E+02                                 F               0         IfW Z-component position of node 18 (blade 1, node 17), m
         55    2.145E+01                                 F               0         IfW X-component position of node 19 (blade 1, node 18), m
         56   -5.581E+01                                 F               0         IfW Y-component position of node 19 (blade 1, node 18), m
         57    2.158E+02                                 F               0         IfW Z-component position of node 19 (blade 1, node 18), m
         58    2.208E+01                                 F               0         IfW X-component position of node 20 (blade 1, node 19), m
         59   -5.807E+01                                 F               0         IfW Y-component position of node 20 (blade 1, node 19), m
         60    2.189E+02                                 F               0         IfW Z-component position of node 20 (blade 1, node 19), m
         61    2.270E+01                                 F               0         IfW X-component position of node 21 (blade 1, node 20), m
         62   -6.034E+01                                 F               0         IfW Y-component position of node 21 (blade 1, node 20), m
         63    2.220E+02                                 F               0         IfW Z-component position of node 21 (blade 1, node 20), m
         64    2.333E+01                                 F               0         IfW X-component position of node 22 (blade 1, node 21), m
         65   -6.261E+01                                 F               0         IfW Y-component position of node 22 (blade 1, node 21), m
         66    2.250E+02                                 F               0         IfW Z-component position of node 22 (blade 1, node 21), m
         67    2.395E+01                                 F               0         IfW X-component position of node 23 (blade 1, node 22), m
         68   -6.488E+01                                 F               0         IfW Y-component position of node 23 (blade 1, node 22), m
         69    2.281E+02                                 F               0         IfW Z-component position of node 23 (blade 1, node 22), m
         70    2.457E+01                                 F               0         IfW X-component position of node 24 (blade 1, node 23), m
         71   -6.715E+01                                 F               0         IfW Y-component position of node 24 (blade 1, node 23), m
         72    2.312E+02                                 F               0         IfW Z-component position of node 24 (blade 1, node 23), m
         73    2.520E+01                                 F               0         IfW X-component position of node 25 (blade 1, node 24), m
         74   -6.941E+01                                 F               0         IfW Y-component position of node 25 (blade 1, node 24), m
         75    2.343E+02                                 F               0         IfW Z-component position of node 25 (blade 1, node 24), m
         76    2.582E+01                                 F               0         IfW X-component position of node 26 (blade 1, node 25), m
         77   -7.168E+01                                 F               0         IfW Y-component position of node 26 (blade 1, node 25), m
         78    2.373E+02                                 F               0         IfW Z-component position of node 26 (blade 1, node 25), m
         79    2.644E+01                                 F               0         IfW X-component position of node 27 (blade 1, node 26), m
         80   -7.395E+01                                 F               0         IfW Y-component position of node 27 (blade 1, node 26), m
         81    2.404E+02                                 F               0         IfW Z-component position of node 27 (blade 1, node 26), m
         82    2.707E+01                                 F               0         IfW X-component position of node 28 (blade 1, node 27), m
         83   -7.622E+01                                 F               0         IfW Y-component position of node 28 (blade 1, node 27), m
         84    2.435E+02                                 F               0         IfW Z-component position of node 28 (blade 1, node 27), m
         85    2.760E+01                                 F               0         IfW X-component position of node 29 (blade 1, node 28), m
         86   -7.814E+01                                 F               0         IfW Y-component position of node 29 (blade 1, node 28), m
         87    2.461E+02                                 F               0         IfW Z-component position of node 29 (blade 1, node 28), m
         88    7.109E+00                                 F               0         IfW X-component position of node 30 (blade 2, node 1), m
         89   -9.375E+00                                 F               0         IfW Y-component position of node 30 (blade 2, node 1), m
         90    1.449E+02                                 F               0         IfW Z-component position of node 30 (blade 2, node 1), m
         91    6.879E+00                                 F               0         IfW X-component position of node 31 (blade 2, node 2), m
         92   -9.920E+00                                 F               0         IfW Y-component position of node 31 (blade 2, node 2), m
         93    1.437E+02                                 F               0         IfW Z-component position of node 31 (blade 2, node 2), m
         94    3.754E+00                                 F               0         IfW X-component position of node 32 (blade 2, node 3), m
         95   -1.733E+01                                 F               0         IfW Y-component position of node 32 (blade 2, node 3), m
         96    1.275E+02                                 F               0         IfW Z-component position of node 32 (blade 2, node 3), m
         97    3.089E+00                                 F               0         IfW X-component position of node 33 (blade 2, node 4), m
         98   -1.891E+01                                 F               0         IfW Y-component position of node 33 (blade 2, node 4), m
         99    1.240E+02                                 F               0         IfW Z-component position of node 33 (blade 2, node 4), m
        100    2.423E+00                                 F               0         IfW X-component position of node 34 (blade 2, node 5), m
        101   -2.049E+01                                 F               0         IfW Y-component position of node 34 (blade 2, node 5), m
        102    1.205E+02                                 F               0         IfW Z-component position of node 34 (blade 2, node 5), m
        103    1.757E+00                                 F               0         IfW X-component position of node 35 (blade 2, node 6), m
        104   -2.207E+01                                 F               0         IfW Y-component position of node 35 (blade 2, node 6), m
        105    1.171E+02                                 F               0         IfW Z-component position of node 35 (blade 2, node 6), m
        106    1.091E+00                                 F               0         IfW X-component position of node 36 (blade 2, node 7), m
        107   -2.365E+01                                 F               0         IfW Y-component position of node 36 (blade 2, node 7), m
        108    1.136E+02                                 F               0         IfW Z-component position of node 36 (blade 2, node 7), m
        109    4.257E-01                                 F               0         IfW X-component position of node 37 (blade 2, node 8), m
        110   -2.523E+01                                 F               0         IfW Y-component position of node 37 (blade 2, node 8), m
        111    1.101E+02                                 F               0         IfW Z-component position of node 37 (blade 2, node 8), m
        112   -2.400E-01                                 F               0         IfW X-component position of node 38 (blade 2, node 9), m
        113   -2.681E+01                                 F               0         IfW Y-component position of node 38 (blade 2, node 9), m
        114    1.067E+02                                 F               0         IfW Z-component position of node 38 (blade 2, node 9), m
        115   -9.057E-01                                 F               0         IfW X-component position of node 39 (blade 2, node 10), m
        116   -2.839E+01                                 F               0         IfW Y-component position of node 39 (blade 2, node 10), m
        117    1.032E+02                                 F               0         IfW Z-component position of node 39 (blade 2, node 10), m
        118   -1.571E+00                                 F               0         IfW X-component position of node 40 (blade 2, node 11), m
        119   -2.996E+01                                 F               0         IfW Y-component position of node 40 (blade 2, node 11), m
        120    9.973E+01                                 F               0         IfW Z-component position of node 40 (blade 2, node 11), m
        121   -2.237E+00                                 F               0         IfW X-component position of node 41 (blade 2, node 12), m
        122   -3.154E+01                                 F               0         IfW Y-component position of node 41 (blade 2, node 12), m
        123    9.627E+01                                 F               0         IfW Z-component position of node 41 (blade 2, node 12), m
        124   -2.903E+00                                 F               0         IfW X-component position of node 42 (blade 2, node 13), m
        125   -3.312E+01                                 F               0         IfW Y-component position of node 42 (blade 2, node 13), m
        126    9.280E+01                                 F               0         IfW Z-component position of node 42 (blade 2, node 13), m
        127   -3.569E+00                                 F               0         IfW X-component position of node 43 (blade 2, node 14), m
        128   -3.470E+01                                 F               0         IfW Y-component position of node 43 (blade 2, node 14), m
        129    8.933E+01                                 F               0         IfW Z-component position of node 43 (blade 2, node 14), m
        130   -4.234E+00                                 F               0         IfW X-component position of node 44 (blade 2, node 15), m
        131   -3.628E+01                                 F               0         IfW Y-component position of node 44 (blade 2, node 15), m
        132    8.586E+01                                 F               0         IfW Z-component position of node 44 (blade 2, node 15), m
        133   -4.900E+00                                 F               0         IfW X-component position of node 45 (blade 2, node 16), m
        134   -3.786E+01                                 F               0         IfW Y-component position of node 45 (blade 2, node 16), m
        135    8.240E+01                                 F               0         IfW Z-component position of node 45 (blade 2, node 16), m
        136   -5.566E+00                                 F               0         IfW X-component position of node 46 (blade 2, node 17), m
        137   -3.944E+01                                 F               0         IfW Y-component position of node 46 (blade 2, node 17), m
        138    7.893E+01                                 F               0         IfW Z-component position of node 46 (blade 2, node 17), m
        139   -6.232E+00                                 F               0         IfW X-component position of node 47 (blade 2, node 18), m
        140   -4.102E+01                                 F               0         IfW Y-component position of node 47 (blade 2, node 18), m
        141    7.546E+01                                 F               0         IfW Z-component position of node 47 (blade 2, node 18), m
        142   -6.897E+00                                 F               0         IfW X-component position of node 48 (blade 2, node 19), m
        143   -4.260E+01                                 F               0         IfW Y-component position of node 48 (blade 2, node 19), m
        144    7.199E+01                                 F               0         IfW Z-component position of node 48 (blade 2, node 19), m