
Linearized model: Predictions were generated on 11-Jan-2024 at 12:32:35 using OpenFAST, compiled as a 64-bit application using single precision at commit v3.5.1
 linked with  NWTC Subroutine Library; ElastoDyn; InflowWind; AeroDyn; ServoDyn; HydroDyn; MoorDyn (v2.0.0, 2023-09-18)

Description from the FAST input file: CCT-9 Campign 4 model. Input files to be run with OpenFAST 3.5.0. GitHub branch from Lu Wang (https://github.com/luwang00/openfast/tree/dev) compiled on March 7, 2023.

Simulation information:
   Simulation time:                   503.9500 s
   Rotor Speed:                         0.7073 rad/s
   Azimuth:                             0.0518 rad
   Wind Speed:                          8.0000 m/s
   Number of continuous states:         0
   Number of discrete states:           0
   Number of constraint states:         0
   Number of inputs:                 1746
   Number of outputs:                   4
   Jacobians included in this file?    No

Order of inputs:
     Column   Operating Point                     Rotating Frame? Derivative Order Description
   ---------- ---------------                     --------------- ---------------- -----------
          1    7.292E+00                                 F               0         Tower X translation displacement, node 1, m
          2   -1.235E+00                                 F               0         Tower Y translation displacement, node 1, m
          3   -1.603E-01                                 F               0         Tower Z translation displacement, node 1, m
          4    8.335E+00                                 F               0         Tower X translation displacement, node 2, m
          5   -1.769E+00                                 F               0         Tower Y translation displacement, node 2, m
          6   -2.160E-01                                 F               0         Tower Z translation displacement, node 2, m
          7    9.394E+00                                 F               0         Tower X translation displacement, node 3, m
          8   -2.307E+00                                 F               0         Tower Y translation displacement, node 3, m
          9   -2.733E-01                                 F               0         Tower Z translation displacement, node 3, m
         10    1.046E+01                                 F               0         Tower X translation displacement, node 4, m
         11   -2.849E+00                                 F               0         Tower Y translation displacement, node 4, m
         12   -3.317E-01                                 F               0         Tower Z translation displacement, node 4, m
         13    1.154E+01                                 F               0         Tower X translation displacement, node 5, m
         14   -3.395E+00                                 F               0         Tower Y translation displacement, node 5, m
         15   -3.911E-01                                 F               0         Tower Z translation displacement, node 5, m
         16    1.263E+01                                 F               0         Tower X translation displacement, node 6, m
         17   -3.943E+00                                 F               0         Tower Y translation displacement, node 6, m
         18   -4.513E-01                                 F               0         Tower Z translation displacement, node 6, m
         19    1.372E+01                                 F               0         Tower X translation displacement, node 7, m
         20   -4.494E+00                                 F               0         Tower Y translation displacement, node 7, m
         21   -5.120E-01                                 F               0         Tower Z translation displacement, node 7, m
         22    1.482E+01                                 F               0         Tower X translation displacement, node 8, m
         23   -5.047E+00                                 F               0         Tower Y translation displacement, node 8, m
         24   -5.732E-01                                 F               0         Tower Z translation displacement, node 8, m
         25    1.592E+01                                 F               0         Tower X translation displacement, node 9, m
         26   -5.601E+00                                 F               0         Tower Y translation displacement, node 9, m
         27   -6.347E-01                                 F               0         Tower Z translation displacement, node 9, m
         28    1.702E+01                                 F               0         Tower X translation displacement, node 10, m
         29   -6.156E+00                                 F               0         Tower Y translation displacement, node 10, m
         30   -6.963E-01                                 F               0         Tower Z translation displacement, node 10, m
         31    1.812E+01                                 F               0         Tower X translation displacement, node 11, m
         32   -6.712E+00                                 F               0         Tower Y translation displacement, node 11, m
         33   -7.581E-01                                 F               0         Tower Z translation displacement, node 11, m
         34    9.965E-01,  4.255E-03, -8.382E-02         F               0         Tower X orientation angle, node 1, rad
         35   -6.318E-04,  9.991E-01,  4.321E-02         F               0         Tower Y orientation angle, node 1, rad
         36    8.392E-02, -4.300E-02,  9.955E-01         F               0         Tower Z orientation angle, node 1, rad
         37    9.964E-01,  4.307E-03, -8.502E-02         F               0         Tower X orientation angle, node 2, rad
         38   -5.991E-04,  9.990E-01,  4.359E-02         F               0         Tower Y orientation angle, node 2, rad
         39    8.513E-02, -4.338E-02,  9.954E-01         F               0         Tower Z orientation angle, node 2, rad
         40    9.963E-01,  4.353E-03, -8.607E-02         F               0         Tower X orientation angle, node 3, rad
         41   -5.694E-04,  9.990E-01,  4.394E-02         F               0         Tower Y orientation angle, node 3, rad
         42    8.617E-02, -4.372E-02,  9.953E-01         F               0         Tower Z orientation angle, node 3, rad
         43    9.962E-01,  4.391E-03, -8.692E-02         F               0         Tower X orientation angle, node 4, rad
         44   -5.432E-04,  9.990E-01,  4.424E-02         F               0         Tower Y orientation angle, node 4, rad
         45    8.703E-02, -4.402E-02,  9.952E-01         F               0         Tower Z orientation angle, node 4, rad
         46    9.961E-01,  4.421E-03, -8.761E-02         F               0         Tower X orientation angle, node 5, rad
         47   -5.205E-04,  9.990E-01,  4.450E-02         F               0         Tower Y orientation angle, node 5, rad
         48    8.772E-02, -4.428E-02,  9.952E-01         F               0         Tower Z orientation angle, node 5, rad
         49    9.961E-01,  4.445E-03, -8.813E-02         F               0         Tower X orientation angle, node 6, rad
         50   -5.014E-04,  9.990E-01,  4.471E-02         F               0         Tower Y orientation angle, node 6, rad
         51    8.824E-02, -4.450E-02,  9.951E-01         F               0         Tower Z orientation angle, node 6, rad
         52    9.961E-01,  4.461E-03, -8.850E-02         F               0         Tower X orientation angle, node 7, rad
         53   -4.861E-04,  9.990E-01,  4.489E-02         F               0         Tower Y orientation angle, node 7, rad
         54    8.861E-02, -4.467E-02,  9.951E-01         F               0         Tower Z orientation angle, node 7, rad
         55    9.960E-01,  4.473E-03, -8.876E-02         F               0         Tower X orientation angle, node 8, rad
         56   -4.742E-04,  9.990E-01,  4.502E-02         F               0         Tower Y orientation angle, node 8, rad
         57    8.887E-02, -4.480E-02,  9.950E-01         F               0         Tower Z orientation angle, node 8, rad
         58    9.960E-01,  4.480E-03, -8.892E-02         F               0         Tower X orientation angle, node 9, rad
         59   -4.655E-04,  9.990E-01,  4.512E-02         F               0         Tower Y orientation angle, node 9, rad
         60    8.903E-02, -4.490E-02,  9.950E-01         F               0         Tower Z orientation angle, node 9, rad
         61    9.960E-01,  4.484E-03, -8.901E-02         F               0         Tower X orientation angle, node 10, rad
         62   -4.598E-04,  9.990E-01,  4.518E-02         F               0         Tower Y orientation angle, node 10, rad
         63    8.912E-02, -4.496E-02,  9.950E-01         F               0         Tower Z orientation angle, node 10, rad
         64    9.960E-01,  4.486E-03, -8.905E-02         F               0         Tower X orientation angle, node 11, rad
         65   -4.566E-04,  9.990E-01,  4.522E-02         F               0         Tower Y orientation angle, node 11, rad
         66    8.916E-02, -4.500E-02,  9.950E-01         F               0         Tower Z orientation angle, node 11, rad
         67   -4.793E-03                                 F               0         Tower X translation velocity, node 1, m/s
         68    1.177E-03                                 F               0         Tower Y translation velocity, node 1, m/s
         69    4.055E-03                                 F               0         Tower Z translation velocity, node 1, m/s
         70   -4.691E-03                                 F               0         Tower X translation velocity, node 2, m/s
         71    1.270E-03                                 F               0         Tower Y translation velocity, node 2, m/s
         72    4.050E-03                                 F               0         Tower Z translation velocity, node 2, m/s
         73   -4.598E-03                                 F               0         Tower X translation velocity, node 3, m/s
         74    1.356E-03                                 F               0         Tower Y translation velocity, node 3, m/s
         75    4.046E-03                                 F               0         Tower Z translation velocity, node 3, m/s
         76   -4.513E-03                                 F               0         Tower X translation velocity, node 4, m/s
         77    1.437E-03                                 F               0         Tower Y translation velocity, node 4, m/s
         78    4.042E-03                                 F               0         Tower Z translation velocity, node 4, m/s
         79   -4.435E-03                                 F               0         Tower X translation velocity, node 5, m/s
         80    1.514E-03                                 F               0         Tower Y translation velocity, node 5, m/s
         81    4.039E-03                                 F               0         Tower Z translation velocity, node 5, m/s
         82   -4.363E-03                                 F               0         Tower X translation velocity, node 6, m/s
         83    1.586E-03                                 F               0         Tower Y translation velocity, node 6, m/s
         84    4.036E-03                                 F               0         Tower Z translation velocity, node 6, m/s
         85   -4.296E-03                                 F               0         Tower X translation velocity, node 7, m/s
         86    1.654E-03                                 F               0         Tower Y translation velocity, node 7, m/s
         87    4.033E-03                                 F               0         Tower Z translation velocity, node 7, m/s
         88   -4.234E-03                                 F               0         Tower X translation velocity, node 8, m/s
         89    1.719E-03                                 F               0         Tower Y translation velocity, node 8, m/s
         90    4.030E-03                                 F               0         Tower Z translation velocity, node 8, m/s
         91   -4.176E-03                                 F               0         Tower X translation velocity, node 9, m/s
         92    1.781E-03                                 F               0         Tower Y translation velocity, node 9, m/s
         93    4.028E-03                                 F               0         Tower Z translation velocity, node 9, m/s
         94   -4.121E-03                                 F               0         Tower X translation velocity, node 10, m/s
         95    1.842E-03                                 F               0         Tower Y translation velocity, node 10, m/s
         96    4.026E-03                                 F               0         Tower Z translation velocity, node 10, m/s
         97   -4.068E-03                                 F               0         Tower X translation velocity, node 11, m/s
         98    1.901E-03                                 F               0         Tower Y translation velocity, node 11, m/s
         99    4.024E-03                                 F               0         Tower Z translation velocity, node 11, m/s
        100    1.887E+01                                 F               0         Hub X translation displacement, node 1, m
        101   -7.114E+00                                 F               0         Hub Y translation displacement, node 1, m
        102    1.645E-01                                 F               0         Hub Z translation displacement, node 1, m
        103    9.812E-01,  9.165E-03, -1.926E-01         F               0         Hub X orientation angle, node 1, rad
        104    9.529E-03,  9.953E-01,  9.593E-02         F               0         Hub Y orientation angle, node 1, rad
        105    1.926E-01, -9.597E-02,  9.766E-01         F               0         Hub Z orientation angle, node 1, rad
        106    6.941E-01                                 F               0         Hub X rotation velocity, node 1, rad/s
        107    6.488E-03                                 F               0         Hub Y rotation velocity, node 1, rad/s
        108   -1.362E-01                                 F               0         Hub Z rotation velocity, node 1, rad/s
        109    9.805E-01, -2.037E-02, -1.953E-01         F               0         Blade root 1 X orientation angle, node 1, rad
        110    3.863E-02,  9.952E-01,  9.017E-02         F               0         Blade root 1 Y orientation angle, node 1, rad
        111    1.926E-01, -9.597E-02,  9.766E-01         F               0         Blade root 1 Z orientation angle, node 1, rad
        112    9.760E-01,  2.639E-02, -2.162E-01         F               0         Blade root 2 X orientation angle, node 1, rad
        113    1.910E-01, -5.803E-01,  7.917E-01         F               0         Blade root 2 Y orientation angle, node 1, rad
        114   -1.045E-01, -8.140E-01, -5.714E-01         F               0         Blade root 2 Z orientation angle, node 1, rad
        115    9.859E-01,  2.146E-02, -1.660E-01         F               0         Blade root 3 X orientation angle, node 1, rad
        116   -1.423E-01, -4.141E-01, -8.990E-01         F               0         Blade root 3 Y orientation angle, node 1, rad
        117   -8.802E-02,  9.100E-01, -4.052E-01         F               0         Blade root 3 Z orientation angle, node 1, rad
        118    1.935E+01                                 F               0         Blade 1 X translation displacement, node 1, m
        119   -7.646E+00                                 F               0         Blade 1 Y translation displacement, node 1, m
        120    6.507E-02                                 F               0         Blade 1 Z translation displacement, node 1, m
        121    1.947E+01                                 F               0         Blade 1 X translation displacement, node 2, m
        122   -7.774E+00                                 F               0         Blade 1 Y translation displacement, node 2, m
        123    4.113E-02                                 F               0         Blade 1 Z translation displacement, node 2, m
        124    2.107E+01                                 F               0         Blade 1 X translation displacement, node 3, m
        125   -9.516E+00                                 F               0         Blade 1 Y translation displacement, node 3, m
        126   -2.845E-01                                 F               0         Blade 1 Z translation displacement, node 3, m
        127    2.141E+01                                 F               0         Blade 1 X translation displacement, node 4, m
        128   -9.887E+00                                 F               0         Blade 1 Y translation displacement, node 4, m
        129   -3.539E-01                                 F               0         Blade 1 Z translation displacement, node 4, m
        130    2.175E+01                                 F               0         Blade 1 X translation displacement, node 5, m
        131   -1.026E+01                                 F               0         Blade 1 Y translation displacement, node 5, m
        132   -4.233E-01                                 F               0         Blade 1 Z translation displacement, node 5, m
        133    2.209E+01                                 F               0         Blade 1 X translation displacement, node 6, m
        134   -1.063E+01                                 F               0         Blade 1 Y translation displacement, node 6, m
        135   -4.927E-01                                 F               0         Blade 1 Z translation displacement, node 6, m
        136    2.243E+01                                 F               0         Blade 1 X translation displacement, node 7, m
        137   -1.100E+01                                 F               0         Blade 1 Y translation displacement, node 7, m
        138   -5.620E-01                                 F               0         Blade 1 Z translation displacement, node 7, m
        139    2.277E+01                                 F               0         Blade 1 X translation displacement, node 8, m
        140   -1.137E+01                                 F               0         Blade 1 Y translation displacement, node 8, m
        141   -6.314E-01                                 F               0         Blade 1 Z translation displacement, node 8, m
        142    2.311E+01                                 F               0         Blade 1 X translation displacement, node 9, m
        143   -1.174E+01                                 F               0         Blade 1 Y translation displacement, node 9, m
        144   -7.008E-01                                 F               0         Blade 1 Z translation displacement, node 9, m
        145    2.345E+01                                 F               0         Blade 1 X translation displacement, node 10, m
        146   -1.211E+01                                 F               0         Blade 1 Y translation displacement, node 10, m
        147   -7.702E-01                                 F               0         Blade 1 Z translation displacement, node 10, m
        148    2.379E+01                                 F               0         Blade 1 X translation displacement, node 11, m
        149   -1.248E+01                                 F               0         Blade 1 Y translation displacement, node 11, m
        150   -8.396E-01                                 F               0         Blade 1 Z translation displacement, node 11, m
        151    2.413E+01                                 F               0         Blade 1 X translation displacement, node 12, m
        152   -1.286E+01                                 F               0         Blade 1 Y translation displacement, node 12, m
        153   -9.090E-01                                 F               0         Blade 1 Z translation displacement, node 12, m
        154    2.447E+01                                 F               0         Blade 1 X translation displacement, node 13, m
        155   -1.323E+01                                 F               0         Blade 1 Y translation displacement, node 13, m
        156   -9.783E-01                                 F               0         Blade 1 Z translation displacement, node 13, m
        157    2.481E+01                                 F               0         Blade 1 X translation displacement, node 14, m
        158   -1.360E+01                                 F               0         Blade 1 Y translation displacement, node 14, m
        159   -1.048E+00                                 F               0         Blade 1 Z translation displacement, node 14, m
        160    2.515E+01                                 F               0         Blade 1 X translation displacement, node 15, m
        161   -1.397E+01                                 F               0         Blade 1 Y translation displacement, node 15, m
        162   -1.117E+00                                 F               0         Blade 1 Z translation displacement, node 15, m
        163    2.549E+01                                 F               0         Blade 1 X translation displacement, node 16, m
        164   -1.434E+01                                 F               0         Blade 1 Y translation displacement, node 16, m
        165   -1.186E+00                                 F               0         Blade 1 Z translation displacement, node 16, m
        166    2.584E+01                                 F               0         Blade 1 X translation displacement, node 17, m
        167   -1.471E+01                                 F               0         Blade 1 Y translation displacement, node 17, m
        168   -1.256E+00                                 F               0         Blade 1 Z translation displacement, node 17, m
        169    2.618E+01                                 F               0         Blade 1 X translation displacement, node 18, m
        170   -1.508E+01                                 F               0         Blade 1 Y translation displacement, node 18, m
        171   -1.325E+00                                 F               0         Blade 1 Z translation displacement, node 18, m
        172    2.652E+01                                 F               0         Blade 1 X translation displacement, node 19, m
        173   -1.545E+01                                 F               0         Blade 1 Y translation displacement, node 19, m
        174   -1.395E+00                                 F               0         Blade 1 Z translation displacement, node 19, m
        175    2.686E+01                                 F               0         Blade 1 X translation displacement, node 20, m
        176   -1.583E+01                                 F               0         Blade 1 Y translation displacement, node 20, m
        177   -1.464E+00                                 F               0         Blade 1 Z translation displacement, node 20, m
        178    2.720E+01                                 F               0         Blade 1 X translation displacement, node 21, m
        179   -1.620E+01                                 F               0         Blade 1 Y translation displacement, node 21, m
        180   -1.533E+00                                 F               0         Blade 1 Z translation displacement, node 21, m
        181    2.754E+01                                 F               0         Blade 1 X translation displacement, node 22, m
        182   -1.657E+01                                 F               0         Blade 1 Y translation displacement, node 22, m
        183   -1.603E+00                                 F               0         Blade 1 Z translation displacement, node 22, m
        184    2.788E+01                                 F               0         Blade 1 X translation displacement, node 23, m
        185   -1.694E+01                                 F               0         Blade 1 Y translation displacement, node 23, m
        186   -1.672E+00                                 F               0         Blade 1 Z translation displacement, node 23, m
        187    2.822E+01                                 F               0         Blade 1 X translation displacement, node 24, m
        188   -1.731E+01                                 F               0         Blade 1 Y translation displacement, node 24, m
        189   -1.742E+00                                 F               0         Blade 1 Z translation displacement, node 24, m
        190    2.856E+01                                 F               0         Blade 1 X translation displacement, node 25, m
        191   -1.768E+01                                 F               0         Blade 1 Y translation displacement, node 25, m
        192   -1.811E+00                                 F               0         Blade 1 Z translation displacement, node 25, m
        193    2.890E+01                                 F               0         Blade 1 X translation displacement, node 26, m
        194   -1.805E+01                                 F               0         Blade 1 Y translation displacement, node 26, m
        195   -1.880E+00                                 F               0         Blade 1 Z translation displacement, node 26, m
        196    2.924E+01                                 F               0         Blade 1 X translation displacement, node 27, m
        197   -1.842E+01                                 F               0         Blade 1 Y translation displacement, node 27, m
        198   -1.950E+00                                 F               0         Blade 1 Z translation displacement, node 27, m
        199    2.953E+01                                 F               0         Blade 1 X translation displacement, node 28, m
        200   -1.874E+01                                 F               0         Blade 1 Y translation displacement, node 28, m
        201   -2.008E+00                                 F               0         Blade 1 Z translation displacement, node 28, m
        202    8.550E-01, -4.719E-01, -2.150E-01         F               0         Blade 1 X orientation angle, node 1, rad
        203    4.815E-01,  8.764E-01, -8.820E-03         F               0         Blade 1 Y orientation angle, node 1, rad
        204    1.926E-01, -9.597E-02,  9.766E-01         F               0         Blade 1 Z orientation angle, node 1, rad
        205    8.550E-01, -4.719E-01, -2.150E-01         F               0         Blade 1 X orientation angle, node 2, rad
        206    4.815E-01,  8.764E-01, -8.820E-03         F               0         Blade 1 Y orientation angle, node 2, rad
        207    1.926E-01, -9.597E-02,  9.766E-01         F               0         Blade 1 Z orientation angle, node 2, rad
        208    9.448E-01, -2.508E-01, -2.109E-01         F               0         Blade 1 X orientation angle, node 3, rad
        209    2.651E-01,  9.633E-01,  4.238E-02         F               0         Blade 1 Y orientation angle, node 3, rad
        210    1.926E-01, -9.597E-02,  9.766E-01         F               0         Blade 1 Z orientation angle, node 3, rad
        211    9.551E-01, -2.099E-01, -2.089E-01         F               0         Blade 1 X orientation angle, node 4, rad
        212    2.250E-01,  9.730E-01,  5.125E-02         F               0         Blade 1 Y orientation angle, node 4, rad
        213    1.926E-01, -9.597E-02,  9.766E-01         F               0         Blade 1 Z orientation angle, node 4, rad
        214    9.621E-01, -1.775E-01, -2.071E-01         F               0         Blade 1 X orientation angle, node 5, rad
        215    1.932E-01,  9.794E-01,  5.815E-02         F               0         Blade 1 Y orientation angle, node 5, rad
        216    1.926E-01, -9.597E-02,  9.766E-01         F               0         Blade 1 Z orientation angle, node 5, rad
        217    9.669E-01, -1.515E-01, -2.055E-01         F               0         Blade 1 X orientation angle, node 6, rad
        218    1.676E-01,  9.838E-01,  6.362E-02         F               0         Blade 1 Y orientation angle, node 6, rad
        219    1.926E-01, -9.597E-02,  9.766E-01         F               0         Blade 1 Z orientation angle, node 6, rad
        220    9.703E-01, -1.300E-01, -2.041E-01         F               0         Blade 1 X orientation angle, node 7, rad
        221    1.465E-01,  9.869E-01,  6.809E-02         F               0         Blade 1 Y orientation angle, node 7, rad
        222    1.926E-01, -9.597E-02,  9.766E-01         F               0         Blade 1 Z orientation angle, node 7, rad
        223    9.728E-01, -1.120E-01, -2.028E-01         F               0         Blade 1 X orientation angle, node 8, rad
        224    1.289E-01,  9.891E-01,  7.178E-02         F               0         Blade 1 Y orientation angle, node 8, rad
        225    1.926E-01, -9.597E-02,  9.766E-01         F               0         Blade 1 Z orientation angle, node 8, rad
        226    9.747E-01, -9.683E-02, -2.017E-01         F               0         Blade 1 X orientation angle, node 9, rad
        227    1.139E-01,  9.907E-01,  7.489E-02         F               0         Blade 1 Y orientation angle, node 9, rad