
Linearized model: Predictions were generated on 11-Jan-2024 at 12:32:35 using OpenFAST, compiled as a 64-bit application using single precision at commit v3.5.1
 linked with  NWTC Subroutine Library; ElastoDyn; InflowWind; AeroDyn; ServoDyn; HydroDyn; MoorDyn (v2.0.0, 2023-09-18)

Description from the FAST input file: CCT-9 Campign 4 model. Input files to be run with OpenFAST 3.5.0. GitHub branch from Lu Wang (https://github.com/luwang00/openfast/tree/dev) compiled on March 7, 2023.

Simulation information:
   Simulation time:                   505.9250 s
   Rotor Speed:                         0.7073 rad/s
   Azimuth:                             1.4487 rad
   Wind Speed:                          8.0000 m/s
   Number of continuous states:         0
   Number of discrete states:           0
   Number of constraint states:         0
   Number of inputs:                  303
   Number of outputs:                   1
   Jacobians included in this file?    No

Order of inputs:
     Column   Operating Point                     Rotating Frame? Derivative Order Description
   ---------- ---------------                     --------------- ---------------- -----------
          1   -1.080E+01                                 F               0         X-component position of node 1 (hub), m
          2    0.000E+00                                 F               0         Y-component position of node 1 (hub), m
          3    1.497E+02                                 F               0         Z-component position of node 1 (hub), m
          4    8.191E+00                                 F               0         X-component position of node 2 (blade 1, node 1), m
          5   -1.264E+01                                 F               0         Y-component position of node 2 (blade 1, node 1), m
          6    1.503E+02                                 F               0         Z-component position of node 2 (blade 1, node 1), m
          7    8.222E+00                                 F               0         X-component position of node 3 (blade 1, node 2), m
          8   -1.397E+01                                 F               0         Y-component position of node 3 (blade 1, node 2), m
          9    1.504E+02                                 F               0         Z-component position of node 3 (blade 1, node 2), m
         10    8.657E+00                                 F               0         X-component position of node 4 (blade 1, node 3), m
         11   -3.207E+01                                 F               0         Y-component position of node 4 (blade 1, node 3), m
         12    1.518E+02                                 F               0         Z-component position of node 4 (blade 1, node 3), m
         13    8.749E+00                                 F               0         X-component position of node 5 (blade 1, node 4), m
         14   -3.592E+01                                 F               0         Y-component position of node 5 (blade 1, node 4), m
         15    1.521E+02                                 F               0         Z-component position of node 5 (blade 1, node 4), m
         16    8.842E+00                                 F               0         X-component position of node 6 (blade 1, node 5), m
         17   -3.978E+01                                 F               0         Y-component position of node 6 (blade 1, node 5), m
         18    1.524E+02                                 F               0         Z-component position of node 6 (blade 1, node 5), m
         19    8.934E+00                                 F               0         X-component position of node 7 (blade 1, node 6), m
         20   -4.363E+01                                 F               0         Y-component position of node 7 (blade 1, node 6), m
         21    1.526E+02                                 F               0         Z-component position of node 7 (blade 1, node 6), m
         22    9.027E+00                                 F               0         X-component position of node 8 (blade 1, node 7), m
         23   -4.749E+01                                 F               0         Y-component position of node 8 (blade 1, node 7), m
         24    1.529E+02                                 F               0         Z-component position of node 8 (blade 1, node 7), m
         25    9.119E+00                                 F               0         X-component position of node 9 (blade 1, node 8), m
         26   -5.135E+01                                 F               0         Y-component position of node 9 (blade 1, node 8), m
         27    1.532E+02                                 F               0         Z-component position of node 9 (blade 1, node 8), m
         28    9.212E+00                                 F               0         X-component position of node 10 (blade 1, node 9), m
         29   -5.520E+01                                 F               0         Y-component position of node 10 (blade 1, node 9), m
         30    1.535E+02                                 F               0         Z-component position of node 10 (blade 1, node 9), m
         31    9.304E+00                                 F               0         X-component position of node 11 (blade 1, node 10), m
         32   -5.906E+01                                 F               0         Y-component position of node 11 (blade 1, node 10), m
         33    1.538E+02                                 F               0         Z-component position of node 11 (blade 1, node 10), m
         34    9.397E+00                                 F               0         X-component position of node 12 (blade 1, node 11), m
         35   -6.291E+01                                 F               0         Y-component position of node 12 (blade 1, node 11), m
         36    1.541E+02                                 F               0         Z-component position of node 12 (blade 1, node 11), m
         37    9.489E+00                                 F               0         X-component position of node 13 (blade 1, node 12), m
         38   -6.677E+01                                 F               0         Y-component position of node 13 (blade 1, node 12), m
         39    1.544E+02                                 F               0         Z-component position of node 13 (blade 1, node 12), m
         40    9.582E+00                                 F               0         X-component position of node 14 (blade 1, node 13), m
         41   -7.063E+01                                 F               0         Y-component position of node 14 (blade 1, node 13), m
         42    1.547E+02                                 F               0         Z-component position of node 14 (blade 1, node 13), m
         43    9.674E+00                                 F               0         X-component position of node 15 (blade 1, node 14), m
         44   -7.448E+01                                 F               0         Y-component position of node 15 (blade 1, node 14), m
         45    1.549E+02                                 F               0         Z-component position of node 15 (blade 1, node 14), m
         46    9.767E+00                                 F               0         X-component position of node 16 (blade 1, node 15), m
         47   -7.834E+01                                 F               0         Y-component position of node 16 (blade 1, node 15), m
         48    1.552E+02                                 F               0         Z-component position of node 16 (blade 1, node 15), m
         49    9.859E+00                                 F               0         X-component position of node 17 (blade 1, node 16), m
         50   -8.219E+01                                 F               0         Y-component position of node 17 (blade 1, node 16), m
         51    1.555E+02                                 F               0         Z-component position of node 17 (blade 1, node 16), m
         52    9.952E+00                                 F               0         X-component position of node 18 (blade 1, node 17), m
         53   -8.605E+01                                 F               0         Y-component position of node 18 (blade 1, node 17), m
         54    1.558E+02                                 F               0         Z-component position of node 18 (blade 1, node 17), m
         55    1.004E+01                                 F               0         X-component position of node 19 (blade 1, node 18), m
         56   -8.990E+01                                 F               0         Y-component position of node 19 (blade 1, node 18), m
         57    1.561E+02                                 F               0         Z-component position of node 19 (blade 1, node 18), m
         58    1.014E+01                                 F               0         X-component position of node 20 (blade 1, node 19), m
         59   -9.376E+01                                 F               0         Y-component position of node 20 (blade 1, node 19), m
         60    1.564E+02                                 F               0         Z-component position of node 20 (blade 1, node 19), m
         61    1.023E+01                                 F               0         X-component position of node 21 (blade 1, node 20), m
         62   -9.762E+01                                 F               0         Y-component position of node 21 (blade 1, node 20), m
         63    1.567E+02                                 F               0         Z-component position of node 21 (blade 1, node 20), m
         64    1.032E+01                                 F               0         X-component position of node 22 (blade 1, node 21), m
         65   -1.015E+02                                 F               0         Y-component position of node 22 (blade 1, node 21), m
         66    1.570E+02                                 F               0         Z-component position of node 22 (blade 1, node 21), m
         67    1.041E+01                                 F               0         X-component position of node 23 (blade 1, node 22), m
         68   -1.053E+02                                 F               0         Y-component position of node 23 (blade 1, node 22), m
         69    1.573E+02                                 F               0         Z-component position of node 23 (blade 1, node 22), m
         70    1.051E+01                                 F               0         X-component position of node 24 (blade 1, node 23), m
         71   -1.092E+02                                 F               0         Y-component position of node 24 (blade 1, node 23), m
         72    1.575E+02                                 F               0         Z-component position of node 24 (blade 1, node 23), m
         73    1.060E+01                                 F               0         X-component position of node 25 (blade 1, node 24), m
         74   -1.130E+02                                 F               0         Y-component position of node 25 (blade 1, node 24), m
         75    1.578E+02                                 F               0         Z-component position of node 25 (blade 1, node 24), m
         76    1.069E+01                                 F               0         X-component position of node 26 (blade 1, node 25), m
         77   -1.169E+02                                 F               0         Y-component position of node 26 (blade 1, node 25), m
         78    1.581E+02                                 F               0         Z-component position of node 26 (blade 1, node 25), m
         79    1.078E+01                                 F               0         X-component position of node 27 (blade 1, node 26), m
         80   -1.208E+02                                 F               0         Y-component position of node 27 (blade 1, node 26), m
         81    1.584E+02                                 F               0         Z-component position of node 27 (blade 1, node 26), m
         82    1.088E+01                                 F               0         X-component position of node 28 (blade 1, node 27), m
         83   -1.246E+02                                 F               0         Y-component position of node 28 (blade 1, node 27), m
         84    1.587E+02                                 F               0         Z-component position of node 28 (blade 1, node 27), m
         85    1.096E+01                                 F               0         X-component position of node 29 (blade 1, node 28), m
         86   -1.279E+02                                 F               0         Y-component position of node 29 (blade 1, node 28), m
         87    1.589E+02                                 F               0         Z-component position of node 29 (blade 1, node 28), m
         88    7.074E+00                                 F               0         X-component position of node 30 (blade 2, node 1), m
         89   -4.728E+00                                 F               0         Y-component position of node 30 (blade 2, node 1), m
         90    1.450E+02                                 F               0         Z-component position of node 30 (blade 2, node 1), m
         91    6.837E+00                                 F               0         X-component position of node 31 (blade 2, node 2), m
         92   -4.152E+00                                 F               0         Y-component position of node 31 (blade 2, node 2), m
         93    1.438E+02                                 F               0         Z-component position of node 31 (blade 2, node 2), m
         94    3.612E+00                                 F               0         X-component position of node 32 (blade 2, node 3), m
         95    3.675E+00                                 F               0         Y-component position of node 32 (blade 2, node 3), m
         96    1.278E+02                                 F               0         Z-component position of node 32 (blade 2, node 3), m
         97    2.925E+00                                 F               0         X-component position of node 33 (blade 2, node 4), m
         98    5.342E+00                                 F               0         Y-component position of node 33 (blade 2, node 4), m
         99    1.244E+02                                 F               0         Z-component position of node 33 (blade 2, node 4), m
        100    2.238E+00                                 F               0         X-component position of node 34 (blade 2, node 5), m
        101    7.010E+00                                 F               0         Y-component position of node 34 (blade 2, node 5), m
        102    1.209E+02                                 F               0         Z-component position of node 34 (blade 2, node 5), m
        103    1.551E+00                                 F               0         X-component position of node 35 (blade 2, node 6), m
        104    8.678E+00                                 F               0         Y-component position of node 35 (blade 2, node 6), m
        105    1.175E+02                                 F               0         Z-component position of node 35 (blade 2, node 6), m
        106    8.637E-01                                 F               0         X-component position of node 36 (blade 2, node 7), m
        107    1.035E+01                                 F               0         Y-component position of node 36 (blade 2, node 7), m
        108    1.141E+02                                 F               0         Z-component position of node 36 (blade 2, node 7), m
        109    1.766E-01                                 F               0         X-component position of node 37 (blade 2, node 8), m
        110    1.201E+01                                 F               0         Y-component position of node 37 (blade 2, node 8), m
        111    1.107E+02                                 F               0         Z-component position of node 37 (blade 2, node 8), m
        112   -5.105E-01                                 F               0         X-component position of node 38 (blade 2, node 9), m
        113    1.368E+01                                 F               0         Y-component position of node 38 (blade 2, node 9), m
        114    1.072E+02                                 F               0         Z-component position of node 38 (blade 2, node 9), m
        115   -1.198E+00                                 F               0         X-component position of node 39 (blade 2, node 10), m
        116    1.535E+01                                 F               0         Y-component position of node 39 (blade 2, node 10), m
        117    1.038E+02                                 F               0         Z-component position of node 39 (blade 2, node 10), m
        118   -1.885E+00                                 F               0         X-component position of node 40 (blade 2, node 11), m
        119    1.702E+01                                 F               0         Y-component position of node 40 (blade 2, node 11), m
        120    1.004E+02                                 F               0         Z-component position of node 40 (blade 2, node 11), m
        121   -2.572E+00                                 F               0         X-component position of node 41 (blade 2, node 12), m
        122    1.868E+01                                 F               0         Y-component position of node 41 (blade 2, node 12), m
        123    9.698E+01                                 F               0         Z-component position of node 41 (blade 2, node 12), m
        124   -3.259E+00                                 F               0         X-component position of node 42 (blade 2, node 13), m
        125    2.035E+01                                 F               0         Y-component position of node 42 (blade 2, node 13), m
        126    9.356E+01                                 F               0         Z-component position of node 42 (blade 2, node 13), m
        127   -3.946E+00                                 F               0         X-component position of node 43 (blade 2, node 14), m
        128    2.202E+01                                 F               0         Y-component position of node 43 (blade 2, node 14), m
        129    9.014E+01                                 F               0         Z-component position of node 43 (blade 2, node 14), m
        130   -4.633E+00                                 F               0         X-component position of node 44 (blade 2, node 15), m
        131    2.369E+01                                 F               0         Y-component position of node 44 (blade 2, node 15), m
        132    8.672E+01                                 F               0         Z-component position of node 44 (blade 2, node 15), m
        133   -5.320E+00                                 F               0         X-component position of node 45 (blade 2, node 16), m
        134    2.535E+01                                 F               0         Y-component position of node 45 (blade 2, node 16), m
        135    8.330E+01                                 F               0         Z-component position of node 45 (blade 2, node 16), m
        136   -6.007E+00                                 F               0         X-component position of node 46 (blade 2, node 17), m
        137    2.702E+01                                 F               0         Y-component position of node 46 (blade 2, node 17), m
        138    7.987E+01                                 F               0         Z-component position of node 46 (blade 2, node 17), m
        139   -6.694E+00                                 F               0         X-component position of node 47 (blade 2, node 18), m
        140    2.869E+01                                 F               0         Y-component position of node 47 (blade 2, node 18), m
        141    7.645E+01                                 F               0         Z-component position of node 47 (blade 2, node 18), m
        142   -7.381E+00                                 F               0         X-component position of node 48 (blade 2, node 19), m
        143    3.036E+01                                 F               0         Y-component position of node 48 (blade 2, node 19), m
        144    7.303E+01                                 F               0         Z-component position of node 48 (blade 2, node 19), m
        145   -8.068E+00                                 F               0         X-component position of node 49 (blade 2, node 20), m
        146    3.203E+01                                 F               0         Y-component position of node 49 (blade 2, node 20), m
        147    6.961E+01                                 F               0         Z-component position of node 49 (blade 2, node 20), m
        148   -8.755E+00                                 F               0         X-component position of node 50 (blade 2, node 21), m
        149    3.369E+01                                 F               0         Y-component position of node 50 (blade 2, node 21), m
        150    6.619E+01                                 F               0         Z-component position of node 50 (blade 2, node 21), m
        151   -9.443E+00                                 F               0         X-component position of node 51 (blade 2, node 22), m
        152    3.536E+01                                 F               0         Y-component position of node 51 (blade 2, node 22), m
        153    6.277E+01                                 F               0         Z-component position of node 51 (blade 2, node 22), m
        154   -1.013E+01                                 F               0         X-component position of node 52 (blade 2, node 23), m
        155    3.703E+01                                 F               0         Y-component position of node 52 (blade 2, node 23), m
        156    5.935E+01                                 F               0         Z-component position of node 52 (blade 2, node 23), m
        157   -1.082E+01                                 F               0         X-component position of node 53 (blade 2, node 24), m
        158    3.870E+01                                 F               0         Y-component position of node 53 (blade 2, node 24), m
        159    5.592E+01                                 F               0         Z-component position of node 53 (blade 2, node 24), m
        160   -1.150E+01                                 F               0         X-component position of node 54 (blade 2, node 25), m
        161    4.036E+01                                 F               0         Y-component position of node 54 (blade 2, node 25), m
        162    5.250E+01                                 F               0         Z-component position of node 54 (blade 2, node 25), m
        163   -1.219E+01                                 F               0         X-component position of node 55 (blade 2, node 26), m
        164    4.203E+01                                 F               0         Y-component position of node 55 (blade 2, node 26), m
        165    4.908E+01                                 F               0         Z-component position of node 55 (blade 2, node 26), m
        166   -1.288E+01                                 F               0         X-component position of node 56 (blade 2, node 27), m
        167    4.370E+01                                 F               0         Y-component position of node 56 (blade 2, node 27), m
        168    4.566E+01                                 F               0         Z-component position of node 56 (blade 2, node 27), m
        169   -1.346E+01                                 F               0         X-component position of node 57 (blade 2, node 28), m
        170    4.511E+01                                 F               0         Y-component position of node 57 (blade 2, node 28), m
        171    4.276E+01                                 F               0         Z-component position of node 57 (blade 2, node 28), m
        172    8.910E+00                                 F               0         X-component position of node 58 (blade 3, node 1), m
        173   -3.982E+00                                 F               0         Y-component position of node 58 (blade 3, node 1), m
        174    1.544E+02                                 F               0         Z-component position of node 58 (blade 3, node 1), m
        175    9.115E+00                                 F               0         X-component position of node 59 (blade 3, node 2), m
        176   -3.227E+00                                 F               0         Y-component position of node 59 (blade 3, node 2), m
        177    1.555E+02                                 F               0         Z-component position of node 59 (blade 3, node 2), m
        178    1.191E+01                                 F               0         X-component position of node 60 (blade 3, node 3), m
        179    7.043E+00                                 F               0         Y-component position of node 60 (blade 3, node 3), m
        180    1.702E+02                                 F               0         Z-component position of node 60 (blade 3, node 3), m
        181    1.250E+01                                 F               0         X-component position of node 61 (blade 3, node 4), m
        182    9.231E+00                                 F               0         Y-component position of node 61 (blade 3, node 4), m
        183    1.733E+02                                 F               0         Z-component position of node 61 (blade 3, node 4), m
        184    1.309E+01                                 F               0         X-component position of node 62 (blade 3, node 5), m
        185    1.142E+01                                 F               0         Y-component position of node 62 (blade 3, node 5), m
        186    1.765E+02                                 F               0         Z-component position of node 62 (blade 3, node 5), m
        187    1.369E+01                                 F               0         X-component position of node 63 (blade 3, node 6), m
        188    1.361E+01                                 F               0         Y-component position of node 63 (blade 3, node 6), m
        189    1.796E+02                                 F               0         Z-component position of node 63 (blade 3, node 6), m
        190    1.428E+01                                 F               0         X-component position of node 64 (blade 3, node 7), m
        191    1.580E+01                                 F               0         Y-component position of node 64 (blade 3, node 7), m
        192    1.827E+02                                 F               0         Z-component position of node 64 (blade 3, node 7), m
        193    1.488E+01                                 F               0         X-component position of node 65 (blade 3, node 8), m
        194    1.798E+01                                 F               0         Y-component position of node 65 (blade 3, node 8), m
        195    1.859E+02                                 F               0         Z-component position of node 65 (blade 3, node 8), m
        196    1.547E+01                                 F               0         X-component position of node 66 (blade 3, node 9), m
        197    2.017E+01                                 F               0         Y-component position of node 66 (blade 3, node 9), m
        198    1.890E+02                                 F               0         Z-component position of node 66 (blade 3, node 9), m
        199    1.607E+01                                 F               0         X-component position of node 67 (blade 3, node 10), m
        200    2.236E+01                                 F               0         Y-component position of node 67 (blade 3, node 10), m
        201    1.921E+02                                 F               0         Z-component position of node 67 (blade 3, node 10), m
        202    1.666E+01                                 F               0         X-component position of node 68 (blade 3, node 11), m
        203    2.455E+01                                 F               0         Y-component position of node 68 (blade 3, node 11), m
        204    1.953E+02                                 F               0         Z-component position of node 68 (blade 3, node 11), m
        205    1.726E+01                                 F               0         X-component position of node 69 (blade 3, node 12), m
        206    2.674E+01                                 F               0         Y-component position of node 69 (blade 3, node 12), m
        207    1.984E+02                                 F               0         Z-component position of node 69 (blade 3, node 12), m
        208    1.785E+01                                 F               0         X-component position of node 70 (blade 3, node 13), m
        209    2.893E+01                                 F               0         Y-component position of node 70 (blade 3, node 13), m
        210    2.015E+02                                 F               0         Z-component position of node 70 (blade 3, node 13), m
        211    1.845E+01                                 F               0         X-component position of node 71 (blade 3, node 14), m