
Linearized model: Predictions were generated on 11-Jan-2024 at 12:32:35 using OpenFAST, compiled as a 64-bit application using single precision at commit v3.5.1
 linked with  NWTC Subroutine Library; ElastoDyn; InflowWind; AeroDyn; ServoDyn; HydroDyn; MoorDyn (v2.0.0, 2023-09-18)

Description from the FAST input file: CCT-9 Campign 4 model. Input files to be run with OpenFAST 3.5.0. GitHub branch from Lu Wang (https://github.com/luwang00/openfast/tree/dev) compiled on March 7, 2023.

Simulation information:
   Simulation time:                   507.4250 s
   Rotor Speed:                         0.7075 rad/s
   Azimuth:                             2.5097 rad
   Wind Speed:                          8.0000 m/s
   Number of continuous states:         0
   Number of discrete states:           0
   Number of constraint states:         0
   Number of inputs:                 1746
   Number of outputs:                   4
   Jacobians included in this file?    No

Order of inputs:
     Column   Operating Point                     Rotating Frame? Derivative Order Description
   ---------- ---------------                     --------------- ---------------- -----------
          1    7.274E+00                                 F               0         Tower X translation displacement, node 1, m
          2   -1.236E+00                                 F               0         Tower Y translation displacement, node 1, m
          3   -1.458E-01                                 F               0         Tower Z translation displacement, node 1, m
          4    8.318E+00                                 F               0         Tower X translation displacement, node 2, m
          5   -1.770E+00                                 F               0         Tower Y translation displacement, node 2, m
          6   -2.016E-01                                 F               0         Tower Z translation displacement, node 2, m
          7    9.377E+00                                 F               0         Tower X translation displacement, node 3, m
          8   -2.310E+00                                 F               0         Tower Y translation displacement, node 3, m
          9   -2.590E-01                                 F               0         Tower Z translation displacement, node 3, m
         10    1.045E+01                                 F               0         Tower X translation displacement, node 4, m
         11   -2.854E+00                                 F               0         Tower Y translation displacement, node 4, m
         12   -3.175E-01                                 F               0         Tower Z translation displacement, node 4, m
         13    1.153E+01                                 F               0         Tower X translation displacement, node 5, m
         14   -3.401E+00                                 F               0         Tower Y translation displacement, node 5, m
         15   -3.770E-01                                 F               0         Tower Z translation displacement, node 5, m
         16    1.262E+01                                 F               0         Tower X translation displacement, node 6, m
         17   -3.951E+00                                 F               0         Tower Y translation displacement, node 6, m
         18   -4.373E-01                                 F               0         Tower Z translation displacement, node 6, m
         19    1.371E+01                                 F               0         Tower X translation displacement, node 7, m
         20   -4.504E+00                                 F               0         Tower Y translation displacement, node 7, m
         21   -4.982E-01                                 F               0         Tower Z translation displacement, node 7, m
         22    1.481E+01                                 F               0         Tower X translation displacement, node 8, m
         23   -5.058E+00                                 F               0         Tower Y translation displacement, node 8, m
         24   -5.595E-01                                 F               0         Tower Z translation displacement, node 8, m
         25    1.591E+01                                 F               0         Tower X translation displacement, node 9, m
         26   -5.614E+00                                 F               0         Tower Y translation displacement, node 9, m
         27   -6.211E-01                                 F               0         Tower Z translation displacement, node 9, m
         28    1.701E+01                                 F               0         Tower X translation displacement, node 10, m
         29   -6.171E+00                                 F               0         Tower Y translation displacement, node 10, m
         30   -6.829E-01                                 F               0         Tower Z translation displacement, node 10, m
         31    1.811E+01                                 F               0         Tower X translation displacement, node 11, m
         32   -6.729E+00                                 F               0         Tower Y translation displacement, node 11, m
         33   -7.447E-01                                 F               0         Tower Z translation displacement, node 11, m
         34    9.965E-01,  4.215E-03, -8.386E-02         F               0         Tower X orientation angle, node 1, rad
         35   -5.803E-04,  9.991E-01,  4.332E-02         F               0         Tower Y orientation angle, node 1, rad
         36    8.396E-02, -4.312E-02,  9.955E-01         F               0         Tower Z orientation angle, node 1, rad
         37    9.964E-01,  4.267E-03, -8.506E-02         F               0         Tower X orientation angle, node 2, rad
         38   -5.472E-04,  9.990E-01,  4.371E-02         F               0         Tower Y orientation angle, node 2, rad
         39    8.517E-02, -4.350E-02,  9.954E-01         F               0         Tower Z orientation angle, node 2, rad
         40    9.963E-01,  4.313E-03, -8.610E-02         F               0         Tower X orientation angle, node 3, rad
         41   -5.170E-04,  9.990E-01,  4.406E-02         F               0         Tower Y orientation angle, node 3, rad
         42    8.621E-02, -4.385E-02,  9.953E-01         F               0         Tower Z orientation angle, node 3, rad
         43    9.962E-01,  4.351E-03, -8.696E-02         F               0         Tower X orientation angle, node 4, rad
         44   -4.904E-04,  9.990E-01,  4.436E-02         F               0         Tower Y orientation angle, node 4, rad
         45    8.707E-02, -4.415E-02,  9.952E-01         F               0         Tower Z orientation angle, node 4, rad
         46    9.961E-01,  4.381E-03, -8.765E-02         F               0         Tower X orientation angle, node 5, rad
         47   -4.675E-04,  9.990E-01,  4.463E-02         F               0         Tower Y orientation angle, node 5, rad
         48    8.775E-02, -4.441E-02,  9.952E-01         F               0         Tower Z orientation angle, node 5, rad
         49    9.961E-01,  4.405E-03, -8.817E-02         F               0         Tower X orientation angle, node 6, rad
         50   -4.481E-04,  9.990E-01,  4.485E-02         F               0         Tower Y orientation angle, node 6, rad
         51    8.828E-02, -4.463E-02,  9.951E-01         F               0         Tower Z orientation angle, node 6, rad
         52    9.961E-01,  4.422E-03, -8.854E-02         F               0         Tower X orientation angle, node 7, rad
         53   -4.326E-04,  9.990E-01,  4.502E-02         F               0         Tower Y orientation angle, node 7, rad
         54    8.865E-02, -4.481E-02,  9.951E-01         F               0         Tower Z orientation angle, node 7, rad
         55    9.960E-01,  4.433E-03, -8.880E-02         F               0         Tower X orientation angle, node 8, rad
         56   -4.205E-04,  9.990E-01,  4.516E-02         F               0         Tower Y orientation angle, node 8, rad
         57    8.891E-02, -4.494E-02,  9.950E-01         F               0         Tower Z orientation angle, node 8, rad
         58    9.960E-01,  4.441E-03, -8.896E-02         F               0         Tower X orientation angle, node 9, rad
         59   -4.116E-04,  9.990E-01,  4.526E-02         F               0         Tower Y orientation angle, node 9, rad
         60    8.907E-02, -4.504E-02,  9.950E-01         F               0         Tower Z orientation angle, node 9, rad
         61    9.960E-01,  4.445E-03, -8.905E-02         F               0         Tower X orientation angle, node 10, rad
         62   -4.059E-04,  9.990E-01,  4.532E-02         F               0         Tower Y orientation angle, node 10, rad
         63    8.916E-02, -4.511E-02,  9.950E-01         F               0         Tower Z orientation angle, node 10, rad
         64    9.960E-01,  4.447E-03, -8.909E-02         F               0         Tower X orientation angle, node 11, rad
         65   -4.027E-04,  9.990E-01,  4.536E-02         F               0         Tower Y orientation angle, node 11, rad
         66    8.920E-02, -4.514E-02,  9.950E-01         F               0         Tower Z orientation angle, node 11, rad
         67   -5.093E-03                                 F               0         Tower X translation velocity, node 1, m/s
         68   -2.034E-03                                 F               0         Tower Y translation velocity, node 1, m/s
         69    3.387E-03                                 F               0         Tower Z translation velocity, node 1, m/s
         70   -4.923E-03                                 F               0         Tower X translation velocity, node 2, m/s
         71   -3.208E-03                                 F               0         Tower Y translation velocity, node 2, m/s
         72    3.322E-03                                 F               0         Tower Z translation velocity, node 2, m/s
         73   -4.765E-03                                 F               0         Tower X translation velocity, node 3, m/s
         74   -4.403E-03                                 F               0         Tower Y translation velocity, node 3, m/s
         75    3.256E-03                                 F               0         Tower Z translation velocity, node 3, m/s
         76   -4.618E-03                                 F               0         Tower X translation velocity, node 4, m/s
         77   -5.613E-03                                 F               0         Tower Y translation velocity, node 4, m/s
         78    3.189E-03                                 F               0         Tower Z translation velocity, node 4, m/s
         79   -4.483E-03                                 F               0         Tower X translation velocity, node 5, m/s
         80   -6.838E-03                                 F               0         Tower Y translation velocity, node 5, m/s
         81    3.123E-03                                 F               0         Tower Z translation velocity, node 5, m/s
         82   -4.360E-03                                 F               0         Tower X translation velocity, node 6, m/s
         83   -8.074E-03                                 F               0         Tower Y translation velocity, node 6, m/s
         84    3.057E-03                                 F               0         Tower Z translation velocity, node 6, m/s
         85   -4.247E-03                                 F               0         Tower X translation velocity, node 7, m/s
         86   -9.318E-03                                 F               0         Tower Y translation velocity, node 7, m/s
         87    2.991E-03                                 F               0         Tower Z translation velocity, node 7, m/s
         88   -4.145E-03                                 F               0         Tower X translation velocity, node 8, m/s
         89   -1.057E-02                                 F               0         Tower Y translation velocity, node 8, m/s
         90    2.925E-03                                 F               0         Tower Z translation velocity, node 8, m/s
         91   -4.052E-03                                 F               0         Tower X translation velocity, node 9, m/s
         92   -1.183E-02                                 F               0         Tower Y translation velocity, node 9, m/s
         93    2.860E-03                                 F               0         Tower Z translation velocity, node 9, m/s
         94   -3.967E-03                                 F               0         Tower X translation velocity, node 10, m/s
         95   -1.309E-02                                 F               0         Tower Y translation velocity, node 10, m/s
         96    2.795E-03                                 F               0         Tower Z translation velocity, node 10, m/s
         97   -3.886E-03                                 F               0         Tower X translation velocity, node 11, m/s
         98   -1.436E-02                                 F               0         Tower Y translation velocity, node 11, m/s
         99    2.730E-03                                 F               0         Tower Z translation velocity, node 11, m/s
        100    1.885E+01                                 F               0         Hub X translation displacement, node 1, m
        101   -7.131E+00                                 F               0         Hub Y translation displacement, node 1, m
        102    1.782E-01                                 F               0         Hub Z translation displacement, node 1, m
        103    9.812E-01,  9.141E-03, -1.926E-01         F               0         Hub X orientation angle, node 1, rad
        104    1.142E-01, -8.323E-01,  5.424E-01         F               0         Hub Y orientation angle, node 1, rad
        105   -1.554E-01, -5.542E-01, -8.177E-01         F               0         Hub Z orientation angle, node 1, rad
        106    6.943E-01                                 F               0         Hub X rotation velocity, node 1, rad/s
        107    6.474E-03                                 F               0         Hub Y rotation velocity, node 1, rad/s
        108   -1.363E-01                                 F               0         Hub Z rotation velocity, node 1, rad/s
        109    9.774E-01,  3.383E-02, -2.086E-01         F               0         Blade root 1 X orientation angle, node 1, rad
        110    1.433E-01, -8.317E-01,  5.364E-01         F               0         Blade root 1 Y orientation angle, node 1, rad
        111   -1.554E-01, -5.542E-01, -8.177E-01         F               0         Blade root 1 Z orientation angle, node 1, rad
        112    9.865E-01,  1.103E-02, -1.635E-01         F               0         Blade root 2 X orientation angle, node 1, rad
        113   -1.625E-01, -6.350E-02, -9.847E-01         F               0         Blade root 2 Y orientation angle, node 1, rad
        114   -2.124E-02,  9.979E-01, -6.085E-02         F               0         Blade root 2 Z orientation angle, node 1, rad
        115    9.785E-01, -1.745E-02, -2.055E-01         F               0         Blade root 3 X orientation angle, node 1, rad
        116    1.065E-01,  8.960E-01,  4.311E-01         F               0         Blade root 3 Y orientation angle, node 1, rad
        117    1.766E-01, -4.437E-01,  8.786E-01         F               0         Blade root 3 Z orientation angle, node 1, rad
        118    1.741E+01                                 F               0         Blade 1 X translation displacement, node 1, m
        119   -1.020E+01                                 F               0         Blade 1 Y translation displacement, node 1, m
        120   -9.862E+00                                 F               0         Blade 1 Z translation displacement, node 1, m
        121    1.707E+01                                 F               0         Blade 1 X translation displacement, node 2, m
        122   -1.094E+01                                 F               0         Blade 1 Y translation displacement, node 2, m
        123   -1.228E+01                                 F               0         Blade 1 Z translation displacement, node 2, m
        124    1.235E+01                                 F               0         Blade 1 X translation displacement, node 3, m
        125   -2.100E+01                                 F               0         Blade 1 Y translation displacement, node 3, m
        126   -4.518E+01                                 F               0         Blade 1 Z translation displacement, node 3, m
        127    1.134E+01                                 F               0         Blade 1 X translation displacement, node 4, m
        128   -2.315E+01                                 F               0         Blade 1 Y translation displacement, node 4, m
        129   -5.219E+01                                 F               0         Blade 1 Z translation displacement, node 4, m
        130    1.034E+01                                 F               0         Blade 1 X translation displacement, node 5, m
        131   -2.529E+01                                 F               0         Blade 1 Y translation displacement, node 5, m
        132   -5.920E+01                                 F               0         Blade 1 Z translation displacement, node 5, m
        133    9.334E+00                                 F               0         Blade 1 X translation displacement, node 6, m
        134   -2.743E+01                                 F               0         Blade 1 Y translation displacement, node 6, m
        135   -6.621E+01                                 F               0         Blade 1 Z translation displacement, node 6, m
        136    8.329E+00                                 F               0         Blade 1 X translation displacement, node 7, m
        137   -2.958E+01                                 F               0         Blade 1 Y translation displacement, node 7, m
        138   -7.322E+01                                 F               0         Blade 1 Z translation displacement, node 7, m
        139    7.323E+00                                 F               0         Blade 1 X translation displacement, node 8, m
        140   -3.172E+01                                 F               0         Blade 1 Y translation displacement, node 8, m
        141   -8.023E+01                                 F               0         Blade 1 Z translation displacement, node 8, m
        142    6.318E+00                                 F               0         Blade 1 X translation displacement, node 9, m
        143   -3.386E+01                                 F               0         Blade 1 Y translation displacement, node 9, m
        144   -8.723E+01                                 F               0         Blade 1 Z translation displacement, node 9, m
        145    5.313E+00                                 F               0         Blade 1 X translation displacement, node 10, m
        146   -3.601E+01                                 F               0         Blade 1 Y translation displacement, node 10, m
        147   -9.424E+01                                 F               0         Blade 1 Z translation displacement, node 10, m
        148    4.308E+00                                 F               0         Blade 1 X translation displacement, node 11, m
        149   -3.815E+01                                 F               0         Blade 1 Y translation displacement, node 11, m
        150   -1.013E+02                                 F               0         Blade 1 Z translation displacement, node 11, m
        151    3.303E+00                                 F               0         Blade 1 X translation displacement, node 12, m
        152   -4.029E+01                                 F               0         Blade 1 Y translation displacement, node 12, m
        153   -1.083E+02                                 F               0         Blade 1 Z translation displacement, node 12, m
        154    2.298E+00                                 F               0         Blade 1 X translation displacement, node 13, m
        155   -4.244E+01                                 F               0         Blade 1 Y translation displacement, node 13, m
        156   -1.153E+02                                 F               0         Blade 1 Z translation displacement, node 13, m
        157    1.293E+00                                 F               0         Blade 1 X translation displacement, node 14, m
        158   -4.458E+01                                 F               0         Blade 1 Y translation displacement, node 14, m
        159   -1.223E+02                                 F               0         Blade 1 Z translation displacement, node 14, m
        160    2.873E-01                                 F               0         Blade 1 X translation displacement, node 15, m
        161   -4.672E+01                                 F               0         Blade 1 Y translation displacement, node 15, m
        162   -1.293E+02                                 F               0         Blade 1 Z translation displacement, node 15, m
        163   -7.178E-01                                 F               0         Blade 1 X translation displacement, node 16, m
        164   -4.887E+01                                 F               0         Blade 1 Y translation displacement, node 16, m
        165   -1.363E+02                                 F               0         Blade 1 Z translation displacement, node 16, m
        166   -1.723E+00                                 F               0         Blade 1 X translation displacement, node 17, m
        167   -5.101E+01                                 F               0         Blade 1 Y translation displacement, node 17, m
        168   -1.433E+02                                 F               0         Blade 1 Z translation displacement, node 17, m
        169   -2.728E+00                                 F               0         Blade 1 X translation displacement, node 18, m
        170   -5.315E+01                                 F               0         Blade 1 Y translation displacement, node 18, m
        171   -1.503E+02                                 F               0         Blade 1 Z translation displacement, node 18, m
        172   -3.733E+00                                 F               0         Blade 1 X translation displacement, node 19, m
        173   -5.530E+01                                 F               0         Blade 1 Y translation displacement, node 19, m
        174   -1.573E+02                                 F               0         Blade 1 Z translation displacement, node 19, m
        175   -4.738E+00                                 F               0         Blade 1 X translation displacement, node 20, m
        176   -5.744E+01                                 F               0         Blade 1 Y translation displacement, node 20, m
        177   -1.643E+02                                 F               0         Blade 1 Z translation displacement, node 20, m
        178   -5.743E+00                                 F               0         Blade 1 X translation displacement, node 21, m
        179   -5.959E+01                                 F               0         Blade 1 Y translation displacement, node 21, m
        180   -1.713E+02                                 F               0         Blade 1 Z translation displacement, node 21, m
        181   -6.749E+00                                 F               0         Blade 1 X translation displacement, node 22, m
        182   -6.173E+01                                 F               0         Blade 1 Y translation displacement, node 22, m
        183   -1.784E+02                                 F               0         Blade 1 Z translation displacement, node 22, m
        184   -7.754E+00                                 F               0         Blade 1 X translation displacement, node 23, m
        185   -6.387E+01                                 F               0         Blade 1 Y translation displacement, node 23, m
        186   -1.854E+02                                 F               0         Blade 1 Z translation displacement, node 23, m
        187   -8.759E+00                                 F               0         Blade 1 X translation displacement, node 24, m
        188   -6.602E+01                                 F               0         Blade 1 Y translation displacement, node 24, m
        189   -1.924E+02                                 F               0         Blade 1 Z translation displacement, node 24, m
        190   -9.764E+00                                 F               0         Blade 1 X translation displacement, node 25, m
        191   -6.816E+01                                 F               0         Blade 1 Y translation displacement, node 25, m
        192   -1.994E+02                                 F               0         Blade 1 Z translation displacement, node 25, m
        193   -1.077E+01                                 F               0         Blade 1 X translation displacement, node 26, m
        194   -7.030E+01                                 F               0         Blade 1 Y translation displacement, node 26, m
        195   -2.064E+02                                 F               0         Blade 1 Z translation displacement, node 26, m
        196   -1.177E+01                                 F               0         Blade 1 X translation displacement, node 27, m
        197   -7.245E+01                                 F               0         Blade 1 Y translation displacement, node 27, m
        198   -2.134E+02                                 F               0         Blade 1 Z translation displacement, node 27, m
        199   -1.263E+01                                 F               0         Blade 1 X translation displacement, node 28, m
        200   -7.426E+01                                 F               0         Blade 1 Y translation displacement, node 28, m
        201   -2.193E+02                                 F               0         Blade 1 Z translation displacement, node 28, m
        202    8.045E-01,  4.094E-01, -4.303E-01         F               0         Blade 1 X orientation angle, node 1, rad
        203    5.732E-01, -7.248E-01,  3.823E-01         F               0         Blade 1 Y orientation angle, node 1, rad
        204   -1.554E-01, -5.542E-01, -8.177E-01         F               0         Blade 1 Z orientation angle, node 1, rad
        205    8.045E-01,  4.094E-01, -4.303E-01         F               0         Blade 1 X orientation angle, node 2, rad
        206    5.732E-01, -7.248E-01,  3.823E-01         F               0         Blade 1 Y orientation angle, node 2, rad
        207   -1.554E-01, -5.542E-01, -8.177E-01         F               0         Blade 1 Z orientation angle, node 2, rad
        208    9.175E-01,  2.259E-01, -3.274E-01         F               0         Blade 1 X orientation angle, node 3, rad
        209    3.662E-01, -8.011E-01,  4.734E-01         F               0         Blade 1 Y orientation angle, node 3, rad
        210   -1.554E-01, -5.542E-01, -8.177E-01         F               0         Blade 1 Z orientation angle, node 3, rad
        211    9.321E-01,  1.919E-01, -3.071E-01         F               0         Blade 1 X orientation angle, node 4, rad
        212    3.271E-01, -8.100E-01,  4.868E-01         F               0         Blade 1 Y orientation angle, node 4, rad
        213   -1.554E-01, -5.542E-01, -8.177E-01         F               0         Blade 1 Z orientation angle, node 4, rad
        214    9.425E-01,  1.649E-01, -2.908E-01         F               0         Blade 1 X orientation angle, node 5, rad
        215    2.961E-01, -8.159E-01,  4.967E-01         F               0         Blade 1 Y orientation angle, node 5, rad
        216   -1.554E-01, -5.542E-01, -8.177E-01         F               0         Blade 1 Z orientation angle, node 5, rad
        217    9.500E-01,  1.432E-01, -2.776E-01         F               0         Blade 1 X orientation angle, node 6, rad
        218    2.710E-01, -8.200E-01,  5.042E-01         F               0         Blade 1 Y orientation angle, node 6, rad
        219   -1.554E-01, -5.542E-01, -8.177E-01         F               0         Blade 1 Z orientation angle, node 6, rad
        220    9.557E-01,  1.253E-01, -2.665E-01         F               0         Blade 1 X orientation angle, node 7, rad
        221    2.502E-01, -8.229E-01,  5.102E-01         F               0         Blade 1 Y orientation angle, node 7, rad
        222   -1.554E-01, -5.542E-01, -8.177E-01         F               0         Blade 1 Z orientation angle, node 7, rad
        223    9.600E-01,  1.104E-01, -2.572E-01         F               0         Blade 1 X orientation angle, node 8, rad
        224    2.328E-01, -8.250E-01,  5.149E-01         F               0         Blade 1 Y orientation angle, node 8, rad
        225   -1.554E-01, -5.542E-01, -8.177E-01         F               0         Blade 1 Z orientation angle, node 8, rad
        226    9.635E-01,  9.768E-02, -2.492E-01         F               0         Blade 1 X orientation angle, node 9, rad
        227    2.180E-01, -8.266E-01,  5.188E-01         F               0         Blade 1 Y orientation angle, node 9, rad