
Linearized model: Predictions were generated on 11-Jan-2024 at 12:32:35 using OpenFAST, compiled as a 64-bit application using single precision at commit v3.5.1
 linked with  NWTC Subroutine Library; ElastoDyn; InflowWind; AeroDyn; ServoDyn; HydroDyn; MoorDyn (v2.0.0, 2023-09-18)

Description from the FAST input file: CCT-9 Campign 4 model. Input files to be run with OpenFAST 3.5.0. GitHub branch from Lu Wang (https://github.com/luwang00/openfast/tree/dev) compiled on March 7, 2023.

Simulation information:
   Simulation time:                   500.7500 s
   Rotor Speed:                         0.7077 rad/s
   Azimuth:                             4.0708 rad
   Wind Speed:                          8.0000 m/s
   Number of continuous states:         0
   Number of discrete states:           0
   Number of constraint states:         0
   Number of inputs:                   54
   Number of outputs:                   0
   Jacobians included in this file?    No

Order of inputs:
     Column   Operating Point                     Rotating Frame? Derivative Order Description
   ---------- ---------------                     --------------- ---------------- -----------
          1    4.489E+00                                 F               0         CoupledKinematics X translation displacement, node 1, m
          2    3.432E-01                                 F               0         CoupledKinematics Y translation displacement, node 1, m
          3   -4.750E+00                                 F               0         CoupledKinematics Z translation displacement, node 1, m
          4    4.428E+00                                 F               0         CoupledKinematics X translation displacement, node 2, m
          5    2.436E-01                                 F               0         CoupledKinematics Y translation displacement, node 2, m
          6   -2.322E-01                                 F               0         CoupledKinematics Z translation displacement, node 2, m
          7    4.772E+00                                 F               0         CoupledKinematics X translation displacement, node 3, m
          8   -8.378E-02                                 F               0         CoupledKinematics Y translation displacement, node 3, m
          9    4.954E+00                                 F               0         CoupledKinematics Z translation displacement, node 3, m
         10    9.965E-01,  4.245E-03, -8.380E-02         F               0         CoupledKinematics X orientation angle, node 1, rad
         11   -6.151E-04,  9.991E-01,  4.329E-02         F               0         CoupledKinematics Y orientation angle, node 1, rad
         12    8.390E-02, -4.309E-02,  9.955E-01         F               0         CoupledKinematics Z orientation angle, node 1, rad
         13    9.965E-01,  4.245E-03, -8.380E-02         F               0         CoupledKinematics X orientation angle, node 2, rad
         14   -6.151E-04,  9.991E-01,  4.329E-02         F               0         CoupledKinematics Y orientation angle, node 2, rad
         15    8.390E-02, -4.309E-02,  9.955E-01         F               0         CoupledKinematics Z orientation angle, node 2, rad
         16    9.965E-01,  4.245E-03, -8.380E-02         F               0         CoupledKinematics X orientation angle, node 3, rad
         17   -6.151E-04,  9.991E-01,  4.329E-02         F               0         CoupledKinematics Y orientation angle, node 3, rad
         18    8.390E-02, -4.309E-02,  9.955E-01         F               0         CoupledKinematics Z orientation angle, node 3, rad
         19   -3.546E-03                                 F               0         CoupledKinematics X translation velocity, node 1, m/s
         20    7.146E-04                                 F               0         CoupledKinematics Y translation velocity, node 1, m/s
         21    3.749E-03                                 F               0         CoupledKinematics Z translation velocity, node 1, m/s
         22   -4.853E-03                                 F               0         CoupledKinematics X translation velocity, node 2, m/s
         23    9.692E-04                                 F               0         CoupledKinematics Y translation velocity, node 2, m/s
         24   -2.269E-03                                 F               0         CoupledKinematics Z translation velocity, node 2, m/s
         25   -4.113E-03                                 F               0         CoupledKinematics X translation velocity, node 3, m/s
         26    1.101E-04                                 F               0         CoupledKinematics Y translation velocity, node 3, m/s
         27    1.735E-03                                 F               0         CoupledKinematics Z translation velocity, node 3, m/s
         28   -5.856E-05                                 F               0         CoupledKinematics X rotation velocity, node 1, rad/s
         29    1.099E-05                                 F               0         CoupledKinematics Y rotation velocity, node 1, rad/s
         30    1.319E-05                                 F               0         CoupledKinematics Z rotation velocity, node 1, rad/s
         31   -5.856E-05                                 F               0         CoupledKinematics X rotation velocity, node 2, rad/s
         32    1.099E-05                                 F               0         CoupledKinematics Y rotation velocity, node 2, rad/s
         33    1.319E-05                                 F               0         CoupledKinematics Z rotation velocity, node 2, rad/s
         34   -5.856E-05                                 F               0         CoupledKinematics X rotation velocity, node 3, rad/s
         35    1.099E-05                                 F               0         CoupledKinematics Y rotation velocity, node 3, rad/s
         36    1.319E-05                                 F               0         CoupledKinematics Z rotation velocity, node 3, rad/s
         37   -5.379E-04                                 F               0         CoupledKinematics X translation acceleration, node 1, m/s^2
         38    8.429E-05                                 F               0         CoupledKinematics Y translation acceleration, node 1, m/s^2
         39   -3.225E-04                                 F               0         CoupledKinematics Z translation acceleration, node 1, m/s^2
         40   -1.488E-04                                 F               0         CoupledKinematics X translation acceleration, node 2, m/s^2
         41   -4.679E-05                                 F               0         CoupledKinematics Y translation acceleration, node 2, m/s^2
         42    2.720E-03                                 F               0         CoupledKinematics Z translation acceleration, node 2, m/s^2
         43   -3.343E-04                                 F               0         CoupledKinematics X translation acceleration, node 3, m/s^2
         44    1.281E-04                                 F               0         CoupledKinematics Y translation acceleration, node 3, m/s^2
         45    1.312E-03                                 F               0         CoupledKinematics Z translation acceleration, node 3, m/s^2
         46    2.956E-05                                 F               0         CoupledKinematics X rotation acceleration, node 1, rad/s^2
         47    1.405E-06                                 F               0         CoupledKinematics Y rotation acceleration, node 1, rad/s^2
         48   -3.720E-06                                 F               0         CoupledKinematics Z rotation acceleration, node 1, rad/s^2
         49    2.956E-05                                 F               0         CoupledKinematics X rotation acceleration, node 2, rad/s^2
         50    1.405E-06                                 F               0         CoupledKinematics Y rotation acceleration, node 2, rad/s^2
         51   -3.720E-06                                 F               0         CoupledKinematics Z rotation acceleration, node 2, rad/s^2
         52    2.956E-05                                 F               0         CoupledKinematics X rotation acceleration, node 3, rad/s^2
         53    1.405E-06                                 F               0         CoupledKinematics Y rotation acceleration, node 3, rad/s^2
         54   -3.720E-06                                 F               0         CoupledKinematics Z rotation acceleration, node 3, rad/s^2


Linearized state matrices:

