
Linearized model: Predictions were generated on 11-Jan-2024 at 12:32:35 using OpenFAST, compiled as a 64-bit application using single precision at commit v3.5.1
 linked with  NWTC Subroutine Library; ElastoDyn; InflowWind; AeroDyn; ServoDyn; HydroDyn; MoorDyn (v2.0.0, 2023-09-18)

Description from the FAST input file: CCT-9 Campign 4 model. Input files to be run with OpenFAST 3.5.0. GitHub branch from Lu Wang (https://github.com/luwang00/openfast/tree/dev) compiled on March 7, 2023.

Simulation information:
   Simulation time:                   501.0000 s
   Rotor Speed:                         0.7077 rad/s
   Azimuth:                             4.2477 rad
   Wind Speed:                          8.0000 m/s
   Number of continuous states:         0
   Number of discrete states:           0
   Number of constraint states:         0
   Number of inputs:                   54
   Number of outputs:                   0
   Jacobians included in this file?    No

Order of inputs:
     Column   Operating Point                     Rotating Frame? Derivative Order Description
   ---------- ---------------                     --------------- ---------------- -----------
          1    4.488E+00                                 F               0         CoupledKinematics X translation displacement, node 1, m
          2    3.434E-01                                 F               0         CoupledKinematics Y translation displacement, node 1, m
          3   -4.749E+00                                 F               0         CoupledKinematics Z translation displacement, node 1, m
          4    4.427E+00                                 F               0         CoupledKinematics X translation displacement, node 2, m
          5    2.439E-01                                 F               0         CoupledKinematics Y translation displacement, node 2, m
          6   -2.327E-01                                 F               0         CoupledKinematics Z translation displacement, node 2, m
          7    4.771E+00                                 F               0         CoupledKinematics X translation displacement, node 3, m
          8   -8.378E-02                                 F               0         CoupledKinematics Y translation displacement, node 3, m
          9    4.955E+00                                 F               0         CoupledKinematics Z translation displacement, node 3, m
         10    9.965E-01,  4.247E-03, -8.380E-02         F               0         CoupledKinematics X orientation angle, node 1, rad
         11   -6.188E-04,  9.991E-01,  4.328E-02         F               0         CoupledKinematics Y orientation angle, node 1, rad
         12    8.390E-02, -4.308E-02,  9.955E-01         F               0         CoupledKinematics Z orientation angle, node 1, rad
         13    9.965E-01,  4.247E-03, -8.380E-02         F               0         CoupledKinematics X orientation angle, node 2, rad
         14   -6.188E-04,  9.991E-01,  4.328E-02         F               0         CoupledKinematics Y orientation angle, node 2, rad
         15    8.390E-02, -4.308E-02,  9.955E-01         F               0         CoupledKinematics Z orientation angle, node 2, rad
         16    9.965E-01,  4.247E-03, -8.380E-02         F               0         CoupledKinematics X orientation angle, node 3, rad
         17   -6.188E-04,  9.991E-01,  4.328E-02         F               0         CoupledKinematics Y orientation angle, node 3, rad
         18    8.390E-02, -4.308E-02,  9.955E-01         F               0         CoupledKinematics Z orientation angle, node 3, rad
         19   -3.679E-03                                 F               0         CoupledKinematics X translation velocity, node 1, m/s
         20    7.353E-04                                 F               0         CoupledKinematics Y translation velocity, node 1, m/s
         21    3.686E-03                                 F               0         CoupledKinematics Z translation velocity, node 1, m/s
         22   -4.889E-03                                 F               0         CoupledKinematics X translation velocity, node 2, m/s
         23    9.584E-04                                 F               0         CoupledKinematics Y translation velocity, node 2, m/s
         24   -1.599E-03                                 F               0         CoupledKinematics Z translation velocity, node 2, m/s
         25   -4.197E-03                                 F               0         CoupledKinematics X translation velocity, node 3, m/s
         26    1.459E-04                                 F               0         CoupledKinematics Y translation velocity, node 3, m/s
         27    2.042E-03                                 F               0         CoupledKinematics Z translation velocity, node 3, m/s
         28   -5.144E-05                                 F               0         CoupledKinematics X rotation velocity, node 1, rad/s
         29    1.105E-05                                 F               0         CoupledKinematics Y rotation velocity, node 1, rad/s
         30    1.224E-05                                 F               0         CoupledKinematics Z rotation velocity, node 1, rad/s
         31   -5.144E-05                                 F               0         CoupledKinematics X rotation velocity, node 2, rad/s
         32    1.105E-05                                 F               0         CoupledKinematics Y rotation velocity, node 2, rad/s
         33    1.224E-05                                 F               0         CoupledKinematics Z rotation velocity, node 2, rad/s
         34   -5.144E-05                                 F               0         CoupledKinematics X rotation velocity, node 3, rad/s
         35    1.105E-05                                 F               0         CoupledKinematics Y rotation velocity, node 3, rad/s
         36    1.224E-05                                 F               0         CoupledKinematics Z rotation velocity, node 3, rad/s
         37   -5.296E-04                                 F               0         CoupledKinematics X translation acceleration, node 1, m/s^2
         38    7.957E-05                                 F               0         CoupledKinematics Y translation acceleration, node 1, m/s^2
         39   -1.710E-04                                 F               0         CoupledKinematics Z translation acceleration, node 1, m/s^2
         40   -1.325E-04                                 F               0         CoupledKinematics X translation acceleration, node 2, m/s^2
         41   -4.090E-05                                 F               0         CoupledKinematics Y translation acceleration, node 2, m/s^2
         42    2.634E-03                                 F               0         CoupledKinematics Z translation acceleration, node 2, m/s^2
         43   -3.399E-04                                 F               0         CoupledKinematics X translation acceleration, node 3, m/s^2
         44    1.620E-04                                 F               0         CoupledKinematics Y translation acceleration, node 3, m/s^2
         45    1.133E-03                                 F               0         CoupledKinematics Z translation acceleration, node 3, m/s^2
         46    2.727E-05                                 F               0         CoupledKinematics X rotation acceleration, node 1, rad/s^2
         47   -9.979E-07                                 F               0         CoupledKinematics Y rotation acceleration, node 1, rad/s^2
         48   -3.904E-06                                 F               0         CoupledKinematics Z rotation acceleration, node 1, rad/s^2
         49    2.727E-05                                 F               0         CoupledKinematics X rotation acceleration, node 2, rad/s^2
         50   -9.979E-07                                 F               0         CoupledKinematics Y rotation acceleration, node 2, rad/s^2
         51   -3.904E-06                                 F               0         CoupledKinematics Z rotation acceleration, node 2, rad/s^2
         52    2.727E-05                                 F               0         CoupledKinematics X rotation acceleration, node 3, rad/s^2
         53   -9.979E-07                                 F               0         CoupledKinematics Y rotation acceleration, node 3, rad/s^2
         54   -3.904E-06                                 F               0         CoupledKinematics Z rotation acceleration, node 3, rad/s^2


Linearized state matrices:

