
Linearized model: Predictions were generated on 11-Jan-2024 at 12:32:35 using OpenFAST, compiled as a 64-bit application using single precision at commit v3.5.1
 linked with  NWTC Subroutine Library; ElastoDyn; InflowWind; AeroDyn; ServoDyn; HydroDyn; MoorDyn (v2.0.0, 2023-09-18)

Description from the FAST input file: CCT-9 Campign 4 model. Input files to be run with OpenFAST 3.5.0. GitHub branch from Lu Wang (https://github.com/luwang00/openfast/tree/dev) compiled on March 7, 2023.

Simulation information:
   Simulation time:                   506.1750 s
   Rotor Speed:                         0.7073 rad/s
   Azimuth:                             1.6255 rad
   Wind Speed:                          8.0000 m/s
   Number of continuous states:        22
   Number of discrete states:           0
   Number of constraint states:         0
   Number of inputs:                 4033
   Number of outputs:                  55
   Jacobians included in this file?    No

Order of continuous states:
   Row/Column Operating Point                     Rotating Frame? Derivative Order Description
   ---------- ---------------                     --------------- ---------------- -----------
          1    5.741E+00                                 F               2         ED Platform horizontal surge translation DOF (internal DOF index = DOF_Sg), m
          2   -4.449E-01                                 F               2         ED Platform horizontal sway translation DOF (internal DOF index = DOF_Sw), m
          3   -6.891E-02                                 F               2         ED Platform vertical heave translation DOF (internal DOF index = DOF_Hv), m
          4    4.333E-02                                 F               2         ED Platform roll tilt rotation DOF (internal DOF index = DOF_R), rad
          5    8.427E-02                                 F               2         ED Platform pitch tilt rotation DOF (internal DOF index = DOF_P), rad
          6    2.429E-03                                 F               2         ED Platform yaw rotation DOF (internal DOF index = DOF_Y), rad
          7    4.632E-01                                 F               2         ED 1st tower fore-aft bending mode DOF (internal DOF index = DOF_TFA1), m
          8    1.674E-01                                 F               2         ED 1st tower side-to-side bending mode DOF (internal DOF index = DOF_TSS1), m
          9    1.456E-03                                 F               2         ED 2nd tower fore-aft bending mode DOF (internal DOF index = DOF_TFA2), m
         10    7.383E-05                                 F               2         ED 2nd tower side-to-side bending mode DOF (internal DOF index = DOF_TSS2), m
         11    5.470E-02                                 F               2         ED Variable speed generator DOF (internal DOF index = DOF_GeAz), rad
         12   -5.284E-03                                 F               2         ED First time derivative of Platform horizontal surge translation DOF (internal DOF index = DOF_Sg), m/s
         13    4.326E-04                                 F               2         ED First time derivative of Platform horizontal sway translation DOF (internal DOF index = DOF_Sw), m/s
         14    4.318E-03                                 F               2         ED First time derivative of Platform vertical heave translation DOF (internal DOF index = DOF_Hv), m/s
         15    4.362E-05                                 F               2         ED First time derivative of Platform roll tilt rotation DOF (internal DOF index = DOF_R), rad/s
         16    1.196E-05                                 F               2         ED First time derivative of Platform pitch tilt rotation DOF (internal DOF index = DOF_P), rad/s
         17   -1.611E-05                                 F               2         ED First time derivative of Platform yaw rotation DOF (internal DOF index = DOF_Y), rad/s
         18    1.826E-04                                 F               2         ED First time derivative of 1st tower fore-aft bending mode DOF (internal DOF index = DOF_TFA1), m/s
         19    8.516E-04                                 F               2         ED First time derivative of 1st tower side-to-side bending mode DOF (internal DOF index = DOF_TSS1), m/s
         20    1.753E-07                                 F               2         ED First time derivative of 2nd tower fore-aft bending mode DOF (internal DOF index = DOF_TFA2), m/s
         21   -6.930E-07                                 F               2         ED First time derivative of 2nd tower side-to-side bending mode DOF (internal DOF index = DOF_TSS2), m/s
         22    7.073E-01                                 F               2         ED First time derivative of Variable speed generator DOF (internal DOF index = DOF_GeAz), rad/s

Order of continuous state derivatives:
   Row/Column Operating Point                     Rotating Frame? Derivative Order Description
   ---------- ---------------                     --------------- ---------------- -----------
          1   -5.284E-03                                 F               2         First time derivative of ED Platform horizontal surge translation DOF (internal DOF index = DOF_Sg), m/s
          2    4.326E-04                                 F               2         First time derivative of ED Platform horizontal sway translation DOF (internal DOF index = DOF_Sw), m/s
          3    4.318E-03                                 F               2         First time derivative of ED Platform vertical heave translation DOF (internal DOF index = DOF_Hv), m/s
          4    4.362E-05                                 F               2         First time derivative of ED Platform roll tilt rotation DOF (internal DOF index = DOF_R), rad/s
          5    1.196E-05                                 F               2         First time derivative of ED Platform pitch tilt rotation DOF (internal DOF index = DOF_P), rad/s
          6   -1.611E-05                                 F               2         First time derivative of ED Platform yaw rotation DOF (internal DOF index = DOF_Y), rad/s
          7    1.826E-04                                 F               2         First time derivative of ED 1st tower fore-aft bending mode DOF (internal DOF index = DOF_TFA1), m/s
          8    8.516E-04                                 F               2         First time derivative of ED 1st tower side-to-side bending mode DOF (internal DOF index = DOF_TSS1), m/s
          9    1.753E-07                                 F               2         First time derivative of ED 2nd tower fore-aft bending mode DOF (internal DOF index = DOF_TFA2), m/s
         10   -6.930E-07                                 F               2         First time derivative of ED 2nd tower side-to-side bending mode DOF (internal DOF index = DOF_TSS2), m/s
         11    7.073E-01                                 F               2         First time derivative of ED Variable speed generator DOF (internal DOF index = DOF_GeAz), rad/s
         12   -1.052E-05                                 F               2         First time derivative of ED First time derivative of Platform horizontal surge translation DOF (internal DOF index = DOF_Sg), m/s/s
         13   -4.864E-04                                 F               2         First time derivative of ED First time derivative of Platform horizontal sway translation DOF (internal DOF index = DOF_Sw), m/s/s
         14   -3.702E-04                                 F               2         First time derivative of ED First time derivative of Platform vertical heave translation DOF (internal DOF index = DOF_Hv), m/s/s
         15    3.502E-05                                 F               2         First time derivative of ED First time derivative of Platform roll tilt rotation DOF (internal DOF index = DOF_R), rad/s/s
         16    7.125E-06                                 F               2         First time derivative of ED First time derivative of Platform pitch tilt rotation DOF (internal DOF index = DOF_P), rad/s/s
         17   -2.501E-06                                 F               2         First time derivative of ED First time derivative of Platform yaw rotation DOF (internal DOF index = DOF_Y), rad/s/s
         18   -1.262E-03                                 F               2         First time derivative of ED First time derivative of 1st tower fore-aft bending mode DOF (internal DOF index = DOF_TFA1), m/s/s
         19    1.295E-04                                 F               2         First time derivative of ED First time derivative of 1st tower side-to-side bending mode DOF (internal DOF index = DOF_TSS1), m/s/s
         20    4.989E-06                                 F               2         First time derivative of ED First time derivative of 2nd tower fore-aft bending mode DOF (internal DOF index = DOF_TFA2), m/s/s
         21    6.320E-07                                 F               2         First time derivative of ED First time derivative of 2nd tower side-to-side bending mode DOF (internal DOF index = DOF_TSS2), m/s/s
         22    9.117E-05                                 F               2         First time derivative of ED First time derivative of Variable speed generator DOF (internal DOF index = DOF_GeAz), rad/s/s

Order of inputs:
     Column   Operating Point                     Rotating Frame? Derivative Order Description
   ---------- ---------------                     --------------- ---------------- -----------
          1   -1.080E+01                                 F               0         IfW X-component position of node 1 (hub), m
          2    0.000E+00                                 F               0         IfW Y-component position of node 1 (hub), m
          3    1.497E+02                                 F               0         IfW Z-component position of node 1 (hub), m
          4    8.001E+00                                 F               0         IfW X-component position of node 2 (blade 1, node 1), m
          5   -1.263E+01                                 F               0         IfW Y-component position of node 2 (blade 1, node 1), m
          6    1.494E+02                                 F               0         IfW Z-component position of node 2 (blade 1, node 1), m
          7    7.988E+00                                 F               0         IfW X-component position of node 3 (blade 1, node 2), m
          8   -1.396E+01                                 F               0         IfW Y-component position of node 3 (blade 1, node 2), m
          9    1.492E+02                                 F               0         IfW Z-component position of node 3 (blade 1, node 2), m
         10    7.804E+00                                 F               0         IfW X-component position of node 4 (blade 1, node 3), m
         11   -3.202E+01                                 F               0         IfW Y-component position of node 4 (blade 1, node 3), m
         12    1.474E+02                                 F               0         IfW Z-component position of node 4 (blade 1, node 3), m
         13    7.765E+00                                 F               0         IfW X-component position of node 5 (blade 1, node 4), m
         14   -3.587E+01                                 F               0         IfW Y-component position of node 5 (blade 1, node 4), m
         15    1.471E+02                                 F               0         IfW Z-component position of node 5 (blade 1, node 4), m
         16    7.726E+00                                 F               0         IfW X-component position of node 6 (blade 1, node 5), m
         17   -3.972E+01                                 F               0         IfW Y-component position of node 6 (blade 1, node 5), m
         18    1.467E+02                                 F               0         IfW Z-component position of node 6 (blade 1, node 5), m
         19    7.687E+00                                 F               0         IfW X-component position of node 7 (blade 1, node 6), m
         20   -4.357E+01                                 F               0         IfW Y-component position of node 7 (blade 1, node 6), m
         21    1.463E+02                                 F               0         IfW Z-component position of node 7 (blade 1, node 6), m
         22    7.648E+00                                 F               0         IfW X-component position of node 8 (blade 1, node 7), m
         23   -4.742E+01                                 F               0         IfW Y-component position of node 8 (blade 1, node 7), m
         24    1.459E+02                                 F               0         IfW Z-component position of node 8 (blade 1, node 7), m
         25    7.609E+00                                 F               0         IfW X-component position of node 9 (blade 1, node 8), m
         26   -5.126E+01                                 F               0         IfW Y-component position of node 9 (blade 1, node 8), m
         27    1.455E+02                                 F               0         IfW Z-component position of node 9 (blade 1, node 8), m
         28    7.569E+00                                 F               0         IfW X-component position of node 10 (blade 1, node 9), m
         29   -5.511E+01                                 F               0         IfW Y-component position of node 10 (blade 1, node 9), m
         30    1.451E+02                                 F               0         IfW Z-component position of node 10 (blade 1, node 9), m
         31    7.530E+00                                 F               0         IfW X-component position of node 11 (blade 1, node 10), m
         32   -5.896E+01                                 F               0         IfW Y-component position of node 11 (blade 1, node 10), m
         33    1.448E+02                                 F               0         IfW Z-component position of node 11 (blade 1, node 10), m
         34    7.491E+00                                 F               0         IfW X-component position of node 12 (blade 1, node 11), m
         35   -6.281E+01                                 F               0         IfW Y-component position of node 12 (blade 1, node 11), m
         36    1.444E+02                                 F               0         IfW Z-component position of node 12 (blade 1, node 11), m
         37    7.452E+00                                 F               0         IfW X-component position of node 13 (blade 1, node 12), m
         38   -6.666E+01                                 F               0         IfW Y-component position of node 13 (blade 1, node 12), m
         39    1.440E+02                                 F               0         IfW Z-component position of node 13 (blade 1, node 12), m
         40    7.413E+00                                 F               0         IfW X-component position of node 14 (blade 1, node 13), m
         41   -7.051E+01                                 F               0         IfW Y-component position of node 14 (blade 1, node 13), m
         42    1.436E+02                                 F               0         IfW Z-component position of node 14 (blade 1, node 13), m
         43    7.374E+00                                 F               0         IfW X-component position of node 15 (blade 1, node 14), m
         44   -7.436E+01                                 F               0         IfW Y-component position of node 15 (blade 1, node 14), m
         45    1.432E+02                                 F               0         IfW Z-component position of node 15 (blade 1, node 14), m
         46    7.335E+00                                 F               0         IfW X-component position of node 16 (blade 1, node 15), m
         47   -7.820E+01                                 F               0         IfW Y-component position of node 16 (blade 1, node 15), m
         48    1.429E+02                                 F               0         IfW Z-component position of node 16 (blade 1, node 15), m
         49    7.296E+00                                 F               0         IfW X-component position of node 17 (blade 1, node 16), m
         50   -8.205E+01                                 F               0         IfW Y-component position of node 17 (blade 1, node 16), m
         51    1.425E+02                                 F               0         IfW Z-component position of node 17 (blade 1, node 16), m
         52    7.256E+00                                 F               0         IfW X-component position of node 18 (blade 1, node 17), m
         53   -8.590E+01                                 F               0         IfW Y-component position of node 18 (blade 1, node 17), m
         54    1.421E+02                                 F               0         IfW Z-component position of node 18 (blade 1, node 17), m
         55    7.217E+00                                 F               0         IfW X-component position of node 19 (blade 1, node 18), m
         56   -8.975E+01                                 F               0         IfW Y-component position of node 19 (blade 1, node 18), m
         57    1.417E+02                                 F               0         IfW Z-component position of node 19 (blade 1, node 18), m
         58    7.178E+00                                 F               0         IfW X-component position of node 20 (blade 1, node 19), m
         59   -9.360E+01                                 F               0         IfW Y-component position of node 20 (blade 1, node 19), m
         60    1.413E+02                                 F               0         IfW Z-component position of node 20 (blade 1, node 19), m
         61    7.139E+00                                 F               0         IfW X-component position of node 21 (blade 1, node 20), m
         62   -9.745E+01                                 F               0         IfW Y-component position of node 21 (blade 1, node 20), m
         63    1.409E+02                                 F               0         IfW Z-component position of node 21 (blade 1, node 20), m
         64    7.100E+00                                 F               0         IfW X-component position of node 22 (blade 1, node 21), m
         65   -1.013E+02                                 F               0         IfW Y-component position of node 22 (blade 1, node 21), m
         66    1.406E+02                                 F               0         IfW Z-component position of node 22 (blade 1, node 21), m
         67    7.061E+00                                 F               0         IfW X-component position of node 23 (blade 1, node 22), m
         68   -1.051E+02                                 F               0         IfW Y-component position of node 23 (blade 1, node 22), m
         69    1.402E+02                                 F               0         IfW Z-component position of node 23 (blade 1, node 22), m
         70    7.022E+00                                 F               0         IfW X-component position of node 24 (blade 1, node 23), m
         71   -1.090E+02                                 F               0         IfW Y-component position of node 24 (blade 1, node 23), m
         72    1.398E+02                                 F               0         IfW Z-component position of node 24 (blade 1, node 23), m
         73    6.983E+00                                 F               0         IfW X-component position of node 25 (blade 1, node 24), m
         74   -1.128E+02                                 F               0         IfW Y-component position of node 25 (blade 1, node 24), m
         75    1.394E+02                                 F               0         IfW Z-component position of node 25 (blade 1, node 24), m
         76    6.944E+00                                 F               0         IfW X-component position of node 26 (blade 1, node 25), m
         77   -1.167E+02                                 F               0         IfW Y-component position of node 26 (blade 1, node 25), m
         78    1.390E+02                                 F               0         IfW Z-component position of node 26 (blade 1, node 25), m
         79    6.904E+00                                 F               0         IfW X-component position of node 27 (blade 1, node 26), m
         80   -1.205E+02                                 F               0         IfW Y-component position of node 27 (blade 1, node 26), m
         81    1.387E+02                                 F               0         IfW Z-component position of node 27 (blade 1, node 26), m
         82    6.865E+00                                 F               0         IfW X-component position of node 28 (blade 1, node 27), m
         83   -1.244E+02                                 F               0         IfW Y-component position of node 28 (blade 1, node 27), m
         84    1.383E+02                                 F               0         IfW Z-component position of node 28 (blade 1, node 27), m
         85    6.832E+00                                 F               0         IfW X-component position of node 29 (blade 1, node 28), m
         86   -1.277E+02                                 F               0         IfW Y-component position of node 29 (blade 1, node 28), m
         87    1.379E+02                                 F               0         IfW Z-component position of node 29 (blade 1, node 28), m
         88    7.161E+00                                 F               0         IfW X-component position of node 30 (blade 2, node 1), m
         89   -3.887E+00                                 F               0         IfW Y-component position of node 30 (blade 2, node 1), m
         90    1.455E+02                                 F               0         IfW Z-component position of node 30 (blade 2, node 1), m
         91    6.946E+00                                 F               0         IfW X-component position of node 31 (blade 2, node 2), m
         92   -3.109E+00                                 F               0         IfW Y-component position of node 31 (blade 2, node 2), m
         93    1.444E+02                                 F               0         IfW Z-component position of node 31 (blade 2, node 2), m
         94    4.010E+00                                 F               0         IfW X-component position of node 32 (blade 2, node 3), m
         95    7.477E+00                                 F               0         IfW Y-component position of node 32 (blade 2, node 3), m
         96    1.300E+02                                 F               0         IfW Z-component position of node 32 (blade 2, node 3), m
         97    3.385E+00                                 F               0         IfW X-component position of node 33 (blade 2, node 4), m
         98    9.733E+00                                 F               0         IfW Y-component position of node 33 (blade 2, node 4), m
         99    1.269E+02                                 F               0         IfW Z-component position of node 33 (blade 2, node 4), m
        100    2.760E+00                                 F               0         IfW X-component position of node 34 (blade 2, node 5), m
        101    1.199E+01                                 F               0         IfW Y-component position of node 34 (blade 2, node 5), m
        102    1.238E+02                                 F               0         IfW Z-component position of node 34 (blade 2, node 5), m
        103    2.134E+00                                 F               0         IfW X-component position of node 35 (blade 2, node 6), m
        104    1.424E+01                                 F               0         IfW Y-component position of node 35 (blade 2, node 6), m
        105    1.208E+02                                 F               0         IfW Z-component position of node 35 (blade 2, node 6), m
        106    1.509E+00                                 F               0         IfW X-component position of node 36 (blade 2, node 7), m
        107    1.650E+01                                 F               0         IfW Y-component position of node 36 (blade 2, node 7), m
        108    1.177E+02                                 F               0         IfW Z-component position of node 36 (blade 2, node 7), m
        109    8.835E-01                                 F               0         IfW X-component position of node 37 (blade 2, node 8), m
        110    1.875E+01                                 F               0         IfW Y-component position of node 37 (blade 2, node 8), m
        111    1.146E+02                                 F               0         IfW Z-component position of node 37 (blade 2, node 8), m
        112    2.581E-01                                 F               0         IfW X-component position of node 38 (blade 2, node 9), m
        113    2.101E+01                                 F               0         IfW Y-component position of node 38 (blade 2, node 9), m
        114    1.115E+02                                 F               0         IfW Z-component position of node 38 (blade 2, node 9), m
        115   -3.672E-01                                 F               0         IfW X-component position of node 39 (blade 2, node 10), m
        116    2.327E+01                                 F               0         IfW Y-component position of node 39 (blade 2, node 10), m
        117    1.084E+02                                 F               0         IfW Z-component position of node 39 (blade 2, node 10), m
        118   -9.926E-01                                 F               0         IfW X-component position of node 40 (blade 2, node 11), m
        119    2.552E+01                                 F               0         IfW Y-component position of node 40 (blade 2, node 11), m
        120    1.054E+02                                 F               0         IfW Z-component position of node 40 (blade 2, node 11), m
        121   -1.618E+00                                 F               0         IfW X-component position of node 41 (blade 2, node 12), m
        122    2.778E+01                                 F               0         IfW Y-component position of node 41 (blade 2, node 12), m
        123    1.023E+02                                 F               0         IfW Z-component position of node 41 (blade 2, node 12), m
        124   -2.243E+00                                 F               0         IfW X-component position of node 42 (blade 2, node 13), m
        125    3.003E+01                                 F               0         IfW Y-component position of node 42 (blade 2, node 13), m
        126    9.920E+01                                 F               0         IfW Z-component position of node 42 (blade 2, node 13), m
        127   -2.869E+00                                 F               0         IfW X-component position of node 43 (blade 2, node 14), m
        128    3.229E+01                                 F               0         IfW Y-component position of node 43 (blade 2, node 14), m
        129    9.612E+01                                 F               0         IfW Z-component position of node 43 (blade 2, node 14), m
        130   -3.494E+00                                 F               0         IfW X-component position of node 44 (blade 2, node 15), m
        131    3.454E+01                                 F               0         IfW Y-component position of node 44 (blade 2, node 15), m
        132    9.304E+01                                 F               0         IfW Z-component position of node 44 (blade 2, node 15), m
        133   -4.120E+00                                 F               0         IfW X-component position of node 45 (blade 2, node 16), m
        134    3.680E+01                                 F               0         IfW Y-component position of node 45 (blade 2, node 16), m
        135    8.996E+01                                 F               0         IfW Z-component position of node 45 (blade 2, node 16), m
        136   -4.745E+00                                 F               0         IfW X-component position of node 46 (blade 2, node 17), m
        137    3.905E+01                                 F               0         IfW Y-component position of node 46 (blade 2, node 17), m
        138    8.688E+01                                 F               0         IfW Z-component position of node 46 (blade 2, node 17), m
        139   -5.370E+00                                 F               0         IfW X-component position of node 47 (blade 2, node 18), m
        140    4.131E+01                                 F               0         IfW Y-component position of node 47 (blade 2, node 18), m
        141    8.380E+01                                 F               0         IfW Z-component position of node 47 (blade 2, node 18), m
        142   -5.996E+00                                 F               0         IfW X-component position of node 48 (blade 2, node 19), m
        143    4.357E+01                                 F               0         IfW Y-component position of node 48 (blade 2, node 19), m
        144    8.072E+01                                 F               0         IfW Z-component position of node 48 (blade 2, node 19), m