
Linearized model: Predictions were generated on 11-Jan-2024 at 12:32:35 using OpenFAST, compiled as a 64-bit application using single precision at commit v3.5.1
 linked with  NWTC Subroutine Library; ElastoDyn; InflowWind; AeroDyn; ServoDyn; HydroDyn; MoorDyn (v2.0.0, 2023-09-18)

Description from the FAST input file: CCT-9 Campign 4 model. Input files to be run with OpenFAST 3.5.0. GitHub branch from Lu Wang (https://github.com/luwang00/openfast/tree/dev) compiled on March 7, 2023.

Simulation information:
   Simulation time:                   504.9500 s
   Rotor Speed:                         0.7073 rad/s
   Azimuth:                             0.7591 rad
   Wind Speed:                          8.0000 m/s
   Number of continuous states:         0
   Number of discrete states:           0
   Number of constraint states:         0
   Number of inputs:                 1746
   Number of outputs:                   4
   Jacobians included in this file?    No

Order of inputs:
     Column   Operating Point                     Rotating Frame? Derivative Order Description
   ---------- ---------------                     --------------- ---------------- -----------
          1    7.287E+00                                 F               0         Tower X translation displacement, node 1, m
          2   -1.234E+00                                 F               0         Tower Y translation displacement, node 1, m
          3   -1.561E-01                                 F               0         Tower Z translation displacement, node 1, m
          4    8.330E+00                                 F               0         Tower X translation displacement, node 2, m
          5   -1.768E+00                                 F               0         Tower Y translation displacement, node 2, m
          6   -2.118E-01                                 F               0         Tower Z translation displacement, node 2, m
          7    9.389E+00                                 F               0         Tower X translation displacement, node 3, m
          8   -2.306E+00                                 F               0         Tower Y translation displacement, node 3, m
          9   -2.690E-01                                 F               0         Tower Z translation displacement, node 3, m
         10    1.046E+01                                 F               0         Tower X translation displacement, node 4, m
         11   -2.848E+00                                 F               0         Tower Y translation displacement, node 4, m
         12   -3.275E-01                                 F               0         Tower Z translation displacement, node 4, m
         13    1.154E+01                                 F               0         Tower X translation displacement, node 5, m
         14   -3.394E+00                                 F               0         Tower Y translation displacement, node 5, m
         15   -3.869E-01                                 F               0         Tower Z translation displacement, node 5, m
         16    1.263E+01                                 F               0         Tower X translation displacement, node 6, m
         17   -3.943E+00                                 F               0         Tower Y translation displacement, node 6, m
         18   -4.471E-01                                 F               0         Tower Z translation displacement, node 6, m
         19    1.372E+01                                 F               0         Tower X translation displacement, node 7, m
         20   -4.493E+00                                 F               0         Tower Y translation displacement, node 7, m
         21   -5.078E-01                                 F               0         Tower Z translation displacement, node 7, m
         22    1.482E+01                                 F               0         Tower X translation displacement, node 8, m
         23   -5.046E+00                                 F               0         Tower Y translation displacement, node 8, m
         24   -5.690E-01                                 F               0         Tower Z translation displacement, node 8, m
         25    1.592E+01                                 F               0         Tower X translation displacement, node 9, m
         26   -5.600E+00                                 F               0         Tower Y translation displacement, node 9, m
         27   -6.305E-01                                 F               0         Tower Z translation displacement, node 9, m
         28    1.702E+01                                 F               0         Tower X translation displacement, node 10, m
         29   -6.156E+00                                 F               0         Tower Y translation displacement, node 10, m
         30   -6.922E-01                                 F               0         Tower Z translation displacement, node 10, m
         31    1.812E+01                                 F               0         Tower X translation displacement, node 11, m
         32   -6.712E+00                                 F               0         Tower Y translation displacement, node 11, m
         33   -7.539E-01                                 F               0         Tower Z translation displacement, node 11, m
         34    9.965E-01,  4.247E-03, -8.383E-02         F               0         Tower X orientation angle, node 1, rad
         35   -6.235E-04,  9.991E-01,  4.321E-02         F               0         Tower Y orientation angle, node 1, rad
         36    8.393E-02, -4.300E-02,  9.955E-01         F               0         Tower Z orientation angle, node 1, rad
         37    9.964E-01,  4.299E-03, -8.503E-02         F               0         Tower X orientation angle, node 2, rad
         38   -5.907E-04,  9.990E-01,  4.359E-02         F               0         Tower Y orientation angle, node 2, rad
         39    8.514E-02, -4.338E-02,  9.954E-01         F               0         Tower Z orientation angle, node 2, rad
         40    9.963E-01,  4.345E-03, -8.607E-02         F               0         Tower X orientation angle, node 3, rad
         41   -5.609E-04,  9.990E-01,  4.394E-02         F               0         Tower Y orientation angle, node 3, rad
         42    8.618E-02, -4.373E-02,  9.953E-01         F               0         Tower Z orientation angle, node 3, rad
         43    9.962E-01,  4.383E-03, -8.693E-02         F               0         Tower X orientation angle, node 4, rad
         44   -5.346E-04,  9.990E-01,  4.424E-02         F               0         Tower Y orientation angle, node 4, rad
         45    8.704E-02, -4.403E-02,  9.952E-01         F               0         Tower Z orientation angle, node 4, rad
         46    9.961E-01,  4.413E-03, -8.761E-02         F               0         Tower X orientation angle, node 5, rad
         47   -5.119E-04,  9.990E-01,  4.450E-02         F               0         Tower Y orientation angle, node 5, rad
         48    8.772E-02, -4.428E-02,  9.952E-01         F               0         Tower Z orientation angle, node 5, rad
         49    9.961E-01,  4.436E-03, -8.814E-02         F               0         Tower X orientation angle, node 6, rad
         50   -4.927E-04,  9.990E-01,  4.472E-02         F               0         Tower Y orientation angle, node 6, rad
         51    8.825E-02, -4.450E-02,  9.951E-01         F               0         Tower Z orientation angle, node 6, rad
         52    9.961E-01,  4.453E-03, -8.851E-02         F               0         Tower X orientation angle, node 7, rad
         53   -4.774E-04,  9.990E-01,  4.489E-02         F               0         Tower Y orientation angle, node 7, rad
         54    8.862E-02, -4.467E-02,  9.951E-01         F               0         Tower Z orientation angle, node 7, rad
         55    9.960E-01,  4.465E-03, -8.877E-02         F               0         Tower X orientation angle, node 8, rad
         56   -4.655E-04,  9.990E-01,  4.502E-02         F               0         Tower Y orientation angle, node 8, rad
         57    8.888E-02, -4.481E-02,  9.950E-01         F               0         Tower Z orientation angle, node 8, rad
         58    9.960E-01,  4.472E-03, -8.893E-02         F               0         Tower X orientation angle, node 9, rad
         59   -4.567E-04,  9.990E-01,  4.512E-02         F               0         Tower Y orientation angle, node 9, rad
         60    8.904E-02, -4.490E-02,  9.950E-01         F               0         Tower Z orientation angle, node 9, rad
         61    9.960E-01,  4.476E-03, -8.902E-02         F               0         Tower X orientation angle, node 10, rad
         62   -4.510E-04,  9.990E-01,  4.519E-02         F               0         Tower Y orientation angle, node 10, rad
         63    8.913E-02, -4.497E-02,  9.950E-01         F               0         Tower Z orientation angle, node 10, rad
         64    9.960E-01,  4.478E-03, -8.906E-02         F               0         Tower X orientation angle, node 11, rad
         65   -4.479E-04,  9.990E-01,  4.522E-02         F               0         Tower Y orientation angle, node 11, rad
         66    8.917E-02, -4.500E-02,  9.950E-01         F               0         Tower Z orientation angle, node 11, rad
         67   -4.994E-03                                 F               0         Tower X translation velocity, node 1, m/s
         68    6.807E-04                                 F               0         Tower Y translation velocity, node 1, m/s
         69    4.406E-03                                 F               0         Tower Z translation velocity, node 1, m/s
         70   -4.888E-03                                 F               0         Tower X translation velocity, node 2, m/s
         71    5.490E-04                                 F               0         Tower Y translation velocity, node 2, m/s
         72    4.392E-03                                 F               0         Tower Z translation velocity, node 2, m/s
         73   -4.777E-03                                 F               0         Tower X translation velocity, node 3, m/s
         74    4.045E-04                                 F               0         Tower Y translation velocity, node 3, m/s
         75    4.376E-03                                 F               0         Tower Z translation velocity, node 3, m/s
         76   -4.662E-03                                 F               0         Tower X translation velocity, node 4, m/s
         77    2.494E-04                                 F               0         Tower Y translation velocity, node 4, m/s
         78    4.359E-03                                 F               0         Tower Z translation velocity, node 4, m/s
         79   -4.541E-03                                 F               0         Tower X translation velocity, node 5, m/s
         80    8.501E-05                                 F               0         Tower Y translation velocity, node 5, m/s
         81    4.341E-03                                 F               0         Tower Z translation velocity, node 5, m/s
         82   -4.416E-03                                 F               0         Tower X translation velocity, node 6, m/s
         83   -8.774E-05                                 F               0         Tower Y translation velocity, node 6, m/s
         84    4.322E-03                                 F               0         Tower Z translation velocity, node 6, m/s
         85   -4.287E-03                                 F               0         Tower X translation velocity, node 7, m/s
         86   -2.671E-04                                 F               0         Tower Y translation velocity, node 7, m/s
         87    4.303E-03                                 F               0         Tower Z translation velocity, node 7, m/s
         88   -4.153E-03                                 F               0         Tower X translation velocity, node 8, m/s
         89   -4.526E-04                                 F               0         Tower Y translation velocity, node 8, m/s
         90    4.282E-03                                 F               0         Tower Z translation velocity, node 8, m/s
         91   -4.015E-03                                 F               0         Tower X translation velocity, node 9, m/s
         92   -6.428E-04                                 F               0         Tower Y translation velocity, node 9, m/s
         93    4.261E-03                                 F               0         Tower Z translation velocity, node 9, m/s
         94   -3.875E-03                                 F               0         Tower X translation velocity, node 10, m/s
         95   -8.365E-04                                 F               0         Tower Y translation velocity, node 10, m/s
         96    4.240E-03                                 F               0         Tower Z translation velocity, node 10, m/s
         97   -3.733E-03                                 F               0         Tower X translation velocity, node 11, m/s
         98   -1.032E-03                                 F               0         Tower Y translation velocity, node 11, m/s
         99    4.219E-03                                 F               0         Tower Z translation velocity, node 11, m/s
        100    1.886E+01                                 F               0         Hub X translation displacement, node 1, m
        101   -7.113E+00                                 F               0         Hub Y translation displacement, node 1, m
        102    1.687E-01                                 F               0         Hub Z translation displacement, node 1, m
        103    9.812E-01,  9.158E-03, -1.926E-01         F               0         Hub X orientation angle, node 1, rad
        104    1.324E-01,  6.942E-01,  7.075E-01         F               0         Hub Y orientation angle, node 1, rad
        105    1.402E-01, -7.197E-01,  6.800E-01         F               0         Hub Z orientation angle, node 1, rad
        106    6.940E-01                                 F               0         Hub X rotation velocity, node 1, rad/s
        107    6.489E-03                                 F               0         Hub Y rotation velocity, node 1, rad/s
        108   -1.362E-01                                 F               0         Hub Z rotation velocity, node 1, rad/s
        109    9.769E-01, -1.144E-02, -2.135E-01         F               0         Blade root 1 X orientation angle, node 1, rad
        110    1.614E-01,  6.942E-01,  7.015E-01         F               0         Blade root 1 Y orientation angle, node 1, rad
        111    1.402E-01, -7.197E-01,  6.800E-01         F               0         Blade root 1 Z orientation angle, node 1, rad
        112    9.792E-01,  3.794E-02, -1.995E-01         F               0         Blade root 2 X orientation angle, node 1, rad
        113    8.429E-02, -9.697E-01,  2.293E-01         F               0         Blade root 2 Y orientation angle, node 1, rad
        114   -1.847E-01, -2.414E-01, -9.527E-01         F               0         Blade root 2 Z orientation angle, node 1, rad
        115    9.864E-01,  9.611E-04, -1.645E-01         F               0         Blade root 3 X orientation angle, node 1, rad
        116   -1.584E-01,  2.763E-01, -9.479E-01         F               0         Blade root 3 Y orientation angle, node 1, rad
        117    4.455E-02,  9.611E-01,  2.727E-01         F               0         Blade root 3 Z orientation angle, node 1, rad
        118    1.906E+01                                 F               0         Blade 1 X translation displacement, node 1, m
        119   -1.110E+01                                 F               0         Blade 1 Y translation displacement, node 1, m
        120   -1.574E+00                                 F               0         Blade 1 Z translation displacement, node 1, m
        121    1.911E+01                                 F               0         Blade 1 X translation displacement, node 2, m
        122   -1.206E+01                                 F               0         Blade 1 Y translation displacement, node 2, m
        123   -1.994E+00                                 F               0         Blade 1 Z translation displacement, node 2, m
        124    1.975E+01                                 F               0         Blade 1 X translation displacement, node 3, m
        125   -2.513E+01                                 F               0         Blade 1 Y translation displacement, node 3, m
        126   -7.703E+00                                 F               0         Blade 1 Z translation displacement, node 3, m
        127    1.989E+01                                 F               0         Blade 1 X translation displacement, node 4, m
        128   -2.791E+01                                 F               0         Blade 1 Y translation displacement, node 4, m
        129   -8.920E+00                                 F               0         Blade 1 Z translation displacement, node 4, m
        130    2.003E+01                                 F               0         Blade 1 X translation displacement, node 5, m
        131   -3.069E+01                                 F               0         Blade 1 Y translation displacement, node 5, m
        132   -1.014E+01                                 F               0         Blade 1 Z translation displacement, node 5, m
        133    2.017E+01                                 F               0         Blade 1 X translation displacement, node 6, m
        134   -3.348E+01                                 F               0         Blade 1 Y translation displacement, node 6, m
        135   -1.135E+01                                 F               0         Blade 1 Z translation displacement, node 6, m
        136    2.031E+01                                 F               0         Blade 1 X translation displacement, node 7, m
        137   -3.626E+01                                 F               0         Blade 1 Y translation displacement, node 7, m
        138   -1.257E+01                                 F               0         Blade 1 Z translation displacement, node 7, m
        139    2.044E+01                                 F               0         Blade 1 X translation displacement, node 8, m
        140   -3.904E+01                                 F               0         Blade 1 Y translation displacement, node 8, m
        141   -1.379E+01                                 F               0         Blade 1 Z translation displacement, node 8, m
        142    2.058E+01                                 F               0         Blade 1 X translation displacement, node 9, m
        143   -4.183E+01                                 F               0         Blade 1 Y translation displacement, node 9, m
        144   -1.500E+01                                 F               0         Blade 1 Z translation displacement, node 9, m
        145    2.072E+01                                 F               0         Blade 1 X translation displacement, node 10, m
        146   -4.461E+01                                 F               0         Blade 1 Y translation displacement, node 10, m
        147   -1.622E+01                                 F               0         Blade 1 Z translation displacement, node 10, m
        148    2.086E+01                                 F               0         Blade 1 X translation displacement, node 11, m
        149   -4.739E+01                                 F               0         Blade 1 Y translation displacement, node 11, m
        150   -1.744E+01                                 F               0         Blade 1 Z translation displacement, node 11, m
        151    2.099E+01                                 F               0         Blade 1 X translation displacement, node 12, m
        152   -5.018E+01                                 F               0         Blade 1 Y translation displacement, node 12, m
        153   -1.865E+01                                 F               0         Blade 1 Z translation displacement, node 12, m
        154    2.113E+01                                 F               0         Blade 1 X translation displacement, node 13, m
        155   -5.296E+01                                 F               0         Blade 1 Y translation displacement, node 13, m
        156   -1.987E+01                                 F               0         Blade 1 Z translation displacement, node 13, m
        157    2.127E+01                                 F               0         Blade 1 X translation displacement, node 14, m
        158   -5.574E+01                                 F               0         Blade 1 Y translation displacement, node 14, m
        159   -2.108E+01                                 F               0         Blade 1 Z translation displacement, node 14, m
        160    2.141E+01                                 F               0         Blade 1 X translation displacement, node 15, m
        161   -5.853E+01                                 F               0         Blade 1 Y translation displacement, node 15, m
        162   -2.230E+01                                 F               0         Blade 1 Z translation displacement, node 15, m
        163    2.155E+01                                 F               0         Blade 1 X translation displacement, node 16, m
        164   -6.131E+01                                 F               0         Blade 1 Y translation displacement, node 16, m
        165   -2.352E+01                                 F               0         Blade 1 Z translation displacement, node 16, m
        166    2.168E+01                                 F               0         Blade 1 X translation displacement, node 17, m
        167   -6.410E+01                                 F               0         Blade 1 Y translation displacement, node 17, m
        168   -2.473E+01                                 F               0         Blade 1 Z translation displacement, node 17, m
        169    2.182E+01                                 F               0         Blade 1 X translation displacement, node 18, m
        170   -6.688E+01                                 F               0         Blade 1 Y translation displacement, node 18, m
        171   -2.595E+01                                 F               0         Blade 1 Z translation displacement, node 18, m
        172    2.196E+01                                 F               0         Blade 1 X translation displacement, node 19, m
        173   -6.966E+01                                 F               0         Blade 1 Y translation displacement, node 19, m
        174   -2.717E+01                                 F               0         Blade 1 Z translation displacement, node 19, m
        175    2.210E+01                                 F               0         Blade 1 X translation displacement, node 20, m
        176   -7.245E+01                                 F               0         Blade 1 Y translation displacement, node 20, m
        177   -2.838E+01                                 F               0         Blade 1 Z translation displacement, node 20, m
        178    2.224E+01                                 F               0         Blade 1 X translation displacement, node 21, m
        179   -7.523E+01                                 F               0         Blade 1 Y translation displacement, node 21, m
        180   -2.960E+01                                 F               0         Blade 1 Z translation displacement, node 21, m
        181    2.237E+01                                 F               0         Blade 1 X translation displacement, node 22, m
        182   -7.801E+01                                 F               0         Blade 1 Y translation displacement, node 22, m
        183   -3.082E+01                                 F               0         Blade 1 Z translation displacement, node 22, m
        184    2.251E+01                                 F               0         Blade 1 X translation displacement, node 23, m
        185   -8.080E+01                                 F               0         Blade 1 Y translation displacement, node 23, m
        186   -3.203E+01                                 F               0         Blade 1 Z translation displacement, node 23, m
        187    2.265E+01                                 F               0         Blade 1 X translation displacement, node 24, m
        188   -8.358E+01                                 F               0         Blade 1 Y translation displacement, node 24, m
        189   -3.325E+01                                 F               0         Blade 1 Z translation displacement, node 24, m
        190    2.279E+01                                 F               0         Blade 1 X translation displacement, node 25, m
        191   -8.636E+01                                 F               0         Blade 1 Y translation displacement, node 25, m
        192   -3.447E+01                                 F               0         Blade 1 Z translation displacement, node 25, m
        193    2.292E+01                                 F               0         Blade 1 X translation displacement, node 26, m
        194   -8.915E+01                                 F               0         Blade 1 Y translation displacement, node 26, m
        195   -3.568E+01                                 F               0         Blade 1 Z translation displacement, node 26, m
        196    2.306E+01                                 F               0         Blade 1 X translation displacement, node 27, m
        197   -9.193E+01                                 F               0         Blade 1 Y translation displacement, node 27, m
        198   -3.690E+01                                 F               0         Blade 1 Z translation displacement, node 27, m
        199    2.318E+01                                 F               0         Blade 1 X translation displacement, node 28, m
        200   -9.429E+01                                 F               0         Blade 1 Y translation displacement, node 28, m
        201   -3.793E+01                                 F               0         Blade 1 Z translation displacement, node 28, m
        202    7.958E-01, -3.267E-01, -5.099E-01         F               0         Blade 1 X orientation angle, node 1, rad
        203    5.891E-01,  6.126E-01,  5.269E-01         F               0         Blade 1 Y orientation angle, node 1, rad
        204    1.402E-01, -7.197E-01,  6.800E-01         F               0         Blade 1 Z orientation angle, node 1, rad
        205    7.958E-01, -3.267E-01, -5.099E-01         F               0         Blade 1 X orientation angle, node 2, rad
        206    5.891E-01,  6.126E-01,  5.269E-01         F               0         Blade 1 Y orientation angle, node 2, rad
        207    1.402E-01, -7.197E-01,  6.800E-01         F               0         Blade 1 Z orientation angle, node 2, rad
        208    9.127E-01, -1.722E-01, -3.705E-01         F               0         Blade 1 X orientation angle, node 3, rad
        209    3.837E-01,  6.726E-01,  6.328E-01         F               0         Blade 1 Y orientation angle, node 3, rad
        210    1.402E-01, -7.197E-01,  6.800E-01         F               0         Blade 1 Z orientation angle, node 3, rad
        211    9.281E-01, -1.437E-01, -3.434E-01         F               0         Blade 1 X orientation angle, node 4, rad
        212    3.449E-01,  6.793E-01,  6.478E-01         F               0         Blade 1 Y orientation angle, node 4, rad
        213    1.402E-01, -7.197E-01,  6.800E-01         F               0         Blade 1 Z orientation angle, node 4, rad
        214    9.391E-01, -1.211E-01, -3.217E-01         F               0         Blade 1 X orientation angle, node 5, rad
        215    3.139E-01,  6.836E-01,  6.589E-01         F               0         Blade 1 Y orientation angle, node 5, rad
        216    1.402E-01, -7.197E-01,  6.800E-01         F               0         Blade 1 Z orientation angle, node 5, rad
        217    9.471E-01, -1.029E-01, -3.041E-01         F               0         Blade 1 X orientation angle, node 6, rad
        218    2.889E-01,  6.866E-01,  6.672E-01         F               0         Blade 1 Y orientation angle, node 6, rad
        219    1.402E-01, -7.197E-01,  6.800E-01         F               0         Blade 1 Z orientation angle, node 6, rad
        220    9.531E-01, -8.791E-02, -2.895E-01         F               0         Blade 1 X orientation angle, node 7, rad
        221    2.681E-01,  6.887E-01,  6.736E-01         F               0         Blade 1 Y orientation angle, node 7, rad
        222    1.402E-01, -7.197E-01,  6.800E-01         F               0         Blade 1 Z orientation angle, node 7, rad
        223    9.578E-01, -7.539E-02, -2.772E-01         F               0         Blade 1 X orientation angle, node 8, rad
        224    2.508E-01,  6.902E-01,  6.788E-01         F               0         Blade 1 Y orientation angle, node 8, rad
        225    1.402E-01, -7.197E-01,  6.800E-01         F               0         Blade 1 Z orientation angle, node 8, rad
        226    9.616E-01, -6.479E-02, -2.668E-01         F               0         Blade 1 X orientation angle, node 9, rad
        227    2.361E-01,  6.913E-01,  6.830E-01         F               0         Blade 1 Y orientation angle, node 9, rad