
Linearized model: Predictions were generated on 11-Jan-2024 at 12:32:35 using OpenFAST, compiled as a 64-bit application using single precision at commit v3.5.1
 linked with  NWTC Subroutine Library; ElastoDyn; InflowWind; AeroDyn; ServoDyn; HydroDyn; MoorDyn (v2.0.0, 2023-09-18)

Description from the FAST input file: CCT-9 Campign 4 model. Input files to be run with OpenFAST 3.5.0. GitHub branch from Lu Wang (https://github.com/luwang00/openfast/tree/dev) compiled on March 7, 2023.

Simulation information:
   Simulation time:                   507.1750 s
   Rotor Speed:                         0.7074 rad/s
   Azimuth:                             2.3328 rad
   Wind Speed:                          8.0000 m/s
   Number of continuous states:         0
   Number of discrete states:           0
   Number of constraint states:         0
   Number of inputs:                  303
   Number of outputs:                   1
   Jacobians included in this file?    No

Order of inputs:
     Column   Operating Point                     Rotating Frame? Derivative Order Description
   ---------- ---------------                     --------------- ---------------- -----------
          1   -1.080E+01                                 F               0         X-component position of node 1 (hub), m
          2    0.000E+00                                 F               0         Y-component position of node 1 (hub), m
          3    1.497E+02                                 F               0         Z-component position of node 1 (hub), m
          4    7.318E+00                                 F               0         X-component position of node 2 (blade 1, node 1), m
          5   -1.096E+01                                 F               0         Y-component position of node 2 (blade 1, node 1), m
          6    1.460E+02                                 F               0         Z-component position of node 2 (blade 1, node 1), m
          7    7.140E+00                                 F               0         X-component position of node 3 (blade 1, node 2), m
          8   -1.189E+01                                 F               0         Y-component position of node 3 (blade 1, node 2), m
          9    1.450E+02                                 F               0         Z-component position of node 3 (blade 1, node 2), m
         10    4.729E+00                                 F               0         X-component position of node 4 (blade 1, node 3), m
         11   -2.445E+01                                 F               0         Y-component position of node 4 (blade 1, node 3), m
         12    1.322E+02                                 F               0         Z-component position of node 4 (blade 1, node 3), m
         13    4.216E+00                                 F               0         X-component position of node 5 (blade 1, node 4), m
         14   -2.712E+01                                 F               0         Y-component position of node 5 (blade 1, node 4), m
         15    1.294E+02                                 F               0         Z-component position of node 5 (blade 1, node 4), m
         16    3.702E+00                                 F               0         X-component position of node 6 (blade 1, node 5), m
         17   -2.980E+01                                 F               0         Y-component position of node 6 (blade 1, node 5), m
         18    1.267E+02                                 F               0         Z-component position of node 6 (blade 1, node 5), m
         19    3.188E+00                                 F               0         X-component position of node 7 (blade 1, node 6), m
         20   -3.248E+01                                 F               0         Y-component position of node 7 (blade 1, node 6), m
         21    1.239E+02                                 F               0         Z-component position of node 7 (blade 1, node 6), m
         22    2.674E+00                                 F               0         X-component position of node 8 (blade 1, node 7), m
         23   -3.515E+01                                 F               0         Y-component position of node 8 (blade 1, node 7), m
         24    1.212E+02                                 F               0         Z-component position of node 8 (blade 1, node 7), m
         25    2.161E+00                                 F               0         X-component position of node 9 (blade 1, node 8), m
         26   -3.783E+01                                 F               0         Y-component position of node 9 (blade 1, node 8), m
         27    1.184E+02                                 F               0         Z-component position of node 9 (blade 1, node 8), m
         28    1.647E+00                                 F               0         X-component position of node 10 (blade 1, node 9), m
         29   -4.051E+01                                 F               0         Y-component position of node 10 (blade 1, node 9), m
         30    1.157E+02                                 F               0         Z-component position of node 10 (blade 1, node 9), m
         31    1.133E+00                                 F               0         X-component position of node 11 (blade 1, node 10), m
         32   -4.318E+01                                 F               0         Y-component position of node 11 (blade 1, node 10), m
         33    1.129E+02                                 F               0         Z-component position of node 11 (blade 1, node 10), m
         34    6.194E-01                                 F               0         X-component position of node 12 (blade 1, node 11), m
         35   -4.586E+01                                 F               0         Y-component position of node 12 (blade 1, node 11), m
         36    1.102E+02                                 F               0         Z-component position of node 12 (blade 1, node 11), m
         37    1.056E-01                                 F               0         X-component position of node 13 (blade 1, node 12), m
         38   -4.854E+01                                 F               0         Y-component position of node 13 (blade 1, node 12), m
         39    1.075E+02                                 F               0         Z-component position of node 13 (blade 1, node 12), m
         40   -4.081E-01                                 F               0         X-component position of node 14 (blade 1, node 13), m
         41   -5.121E+01                                 F               0         Y-component position of node 14 (blade 1, node 13), m
         42    1.047E+02                                 F               0         Z-component position of node 14 (blade 1, node 13), m
         43   -9.218E-01                                 F               0         X-component position of node 15 (blade 1, node 14), m
         44   -5.389E+01                                 F               0         Y-component position of node 15 (blade 1, node 14), m
         45    1.020E+02                                 F               0         Z-component position of node 15 (blade 1, node 14), m
         46   -1.436E+00                                 F               0         X-component position of node 16 (blade 1, node 15), m
         47   -5.657E+01                                 F               0         Y-component position of node 16 (blade 1, node 15), m
         48    9.923E+01                                 F               0         Z-component position of node 16 (blade 1, node 15), m
         49   -1.949E+00                                 F               0         X-component position of node 17 (blade 1, node 16), m
         50   -5.924E+01                                 F               0         Y-component position of node 17 (blade 1, node 16), m
         51    9.648E+01                                 F               0         Z-component position of node 17 (blade 1, node 16), m
         52   -2.463E+00                                 F               0         X-component position of node 18 (blade 1, node 17), m
         53   -6.192E+01                                 F               0         Y-component position of node 18 (blade 1, node 17), m
         54    9.374E+01                                 F               0         Z-component position of node 18 (blade 1, node 17), m
         55   -2.977E+00                                 F               0         X-component position of node 19 (blade 1, node 18), m
         56   -6.460E+01                                 F               0         Y-component position of node 19 (blade 1, node 18), m
         57    9.099E+01                                 F               0         Z-component position of node 19 (blade 1, node 18), m
         58   -3.491E+00                                 F               0         X-component position of node 20 (blade 1, node 19), m
         59   -6.727E+01                                 F               0         Y-component position of node 20 (blade 1, node 19), m
         60    8.825E+01                                 F               0         Z-component position of node 20 (blade 1, node 19), m
         61   -4.004E+00                                 F               0         X-component position of node 21 (blade 1, node 20), m
         62   -6.995E+01                                 F               0         Y-component position of node 21 (blade 1, node 20), m
         63    8.551E+01                                 F               0         Z-component position of node 21 (blade 1, node 20), m
         64   -4.518E+00                                 F               0         X-component position of node 22 (blade 1, node 21), m
         65   -7.263E+01                                 F               0         Y-component position of node 22 (blade 1, node 21), m
         66    8.276E+01                                 F               0         Z-component position of node 22 (blade 1, node 21), m
         67   -5.032E+00                                 F               0         X-component position of node 23 (blade 1, node 22), m
         68   -7.530E+01                                 F               0         Y-component position of node 23 (blade 1, node 22), m
         69    8.002E+01                                 F               0         Z-component position of node 23 (blade 1, node 22), m
         70   -5.546E+00                                 F               0         X-component position of node 24 (blade 1, node 23), m
         71   -7.798E+01                                 F               0         Y-component position of node 24 (blade 1, node 23), m
         72    7.727E+01                                 F               0         Z-component position of node 24 (blade 1, node 23), m
         73   -6.059E+00                                 F               0         X-component position of node 25 (blade 1, node 24), m
         74   -8.065E+01                                 F               0         Y-component position of node 25 (blade 1, node 24), m
         75    7.453E+01                                 F               0         Z-component position of node 25 (blade 1, node 24), m
         76   -6.573E+00                                 F               0         X-component position of node 26 (blade 1, node 25), m
         77   -8.333E+01                                 F               0         Y-component position of node 26 (blade 1, node 25), m
         78    7.178E+01                                 F               0         Z-component position of node 26 (blade 1, node 25), m
         79   -7.087E+00                                 F               0         X-component position of node 27 (blade 1, node 26), m
         80   -8.601E+01                                 F               0         Y-component position of node 27 (blade 1, node 26), m
         81    6.904E+01                                 F               0         Z-component position of node 27 (blade 1, node 26), m
         82   -7.600E+00                                 F               0         X-component position of node 28 (blade 1, node 27), m
         83   -8.868E+01                                 F               0         Y-component position of node 28 (blade 1, node 27), m
         84    6.630E+01                                 F               0         Z-component position of node 28 (blade 1, node 27), m
         85   -8.036E+00                                 F               0         X-component position of node 29 (blade 1, node 28), m
         86   -9.095E+01                                 F               0         Y-component position of node 29 (blade 1, node 28), m
         87    6.397E+01                                 F               0         Z-component position of node 29 (blade 1, node 28), m
         88    7.751E+00                                 F               0         X-component position of node 30 (blade 2, node 1), m
         89   -1.748E+00                                 F               0         Y-component position of node 30 (blade 2, node 1), m
         90    1.486E+02                                 F               0         Z-component position of node 30 (blade 2, node 1), m
         91    7.678E+00                                 F               0         X-component position of node 31 (blade 2, node 2), m
         92   -4.515E-01                                 F               0         Y-component position of node 31 (blade 2, node 2), m
         93    1.483E+02                                 F               0         Z-component position of node 31 (blade 2, node 2), m
         94    6.686E+00                                 F               0         X-component position of node 32 (blade 2, node 3), m
         95    1.718E+01                                 F               0         Y-component position of node 32 (blade 2, node 3), m
         96    1.441E+02                                 F               0         Z-component position of node 32 (blade 2, node 3), m
         97    6.475E+00                                 F               0         X-component position of node 33 (blade 2, node 4), m
         98    2.093E+01                                 F               0         Y-component position of node 33 (blade 2, node 4), m
         99    1.432E+02                                 F               0         Z-component position of node 33 (blade 2, node 4), m
        100    6.264E+00                                 F               0         X-component position of node 34 (blade 2, node 5), m
        101    2.469E+01                                 F               0         Y-component position of node 34 (blade 2, node 5), m
        102    1.423E+02                                 F               0         Z-component position of node 34 (blade 2, node 5), m
        103    6.052E+00                                 F               0         X-component position of node 35 (blade 2, node 6), m
        104    2.844E+01                                 F               0         Y-component position of node 35 (blade 2, node 6), m
        105    1.414E+02                                 F               0         Z-component position of node 35 (blade 2, node 6), m
        106    5.841E+00                                 F               0         X-component position of node 36 (blade 2, node 7), m
        107    3.220E+01                                 F               0         Y-component position of node 36 (blade 2, node 7), m
        108    1.405E+02                                 F               0         Z-component position of node 36 (blade 2, node 7), m
        109    5.630E+00                                 F               0         X-component position of node 37 (blade 2, node 8), m
        110    3.596E+01                                 F               0         Y-component position of node 37 (blade 2, node 8), m
        111    1.396E+02                                 F               0         Z-component position of node 37 (blade 2, node 8), m
        112    5.418E+00                                 F               0         X-component position of node 38 (blade 2, node 9), m
        113    3.971E+01                                 F               0         Y-component position of node 38 (blade 2, node 9), m
        114    1.387E+02                                 F               0         Z-component position of node 38 (blade 2, node 9), m
        115    5.207E+00                                 F               0         X-component position of node 39 (blade 2, node 10), m
        116    4.347E+01                                 F               0         Y-component position of node 39 (blade 2, node 10), m
        117    1.378E+02                                 F               0         Z-component position of node 39 (blade 2, node 10), m
        118    4.996E+00                                 F               0         X-component position of node 40 (blade 2, node 11), m
        119    4.722E+01                                 F               0         Y-component position of node 40 (blade 2, node 11), m
        120    1.369E+02                                 F               0         Z-component position of node 40 (blade 2, node 11), m
        121    4.785E+00                                 F               0         X-component position of node 41 (blade 2, node 12), m
        122    5.098E+01                                 F               0         Y-component position of node 41 (blade 2, node 12), m
        123    1.360E+02                                 F               0         Z-component position of node 41 (blade 2, node 12), m
        124    4.573E+00                                 F               0         X-component position of node 42 (blade 2, node 13), m
        125    5.474E+01                                 F               0         Y-component position of node 42 (blade 2, node 13), m
        126    1.351E+02                                 F               0         Z-component position of node 42 (blade 2, node 13), m
        127    4.362E+00                                 F               0         X-component position of node 43 (blade 2, node 14), m
        128    5.849E+01                                 F               0         Y-component position of node 43 (blade 2, node 14), m
        129    1.342E+02                                 F               0         Z-component position of node 43 (blade 2, node 14), m
        130    4.151E+00                                 F               0         X-component position of node 44 (blade 2, node 15), m
        131    6.225E+01                                 F               0         Y-component position of node 44 (blade 2, node 15), m
        132    1.333E+02                                 F               0         Z-component position of node 44 (blade 2, node 15), m
        133    3.939E+00                                 F               0         X-component position of node 45 (blade 2, node 16), m
        134    6.601E+01                                 F               0         Y-component position of node 45 (blade 2, node 16), m
        135    1.324E+02                                 F               0         Z-component position of node 45 (blade 2, node 16), m
        136    3.728E+00                                 F               0         X-component position of node 46 (blade 2, node 17), m
        137    6.976E+01                                 F               0         Y-component position of node 46 (blade 2, node 17), m
        138    1.315E+02                                 F               0         Z-component position of node 46 (blade 2, node 17), m
        139    3.517E+00                                 F               0         X-component position of node 47 (blade 2, node 18), m
        140    7.352E+01                                 F               0         Y-component position of node 47 (blade 2, node 18), m
        141    1.306E+02                                 F               0         Z-component position of node 47 (blade 2, node 18), m
        142    3.305E+00                                 F               0         X-component position of node 48 (blade 2, node 19), m
        143    7.727E+01                                 F               0         Y-component position of node 48 (blade 2, node 19), m
        144    1.297E+02                                 F               0         Z-component position of node 48 (blade 2, node 19), m
        145    3.094E+00                                 F               0         X-component position of node 49 (blade 2, node 20), m
        146    8.103E+01                                 F               0         Y-component position of node 49 (blade 2, node 20), m
        147    1.288E+02                                 F               0         Z-component position of node 49 (blade 2, node 20), m
        148    2.883E+00                                 F               0         X-component position of node 50 (blade 2, node 21), m
        149    8.478E+01                                 F               0         Y-component position of node 50 (blade 2, node 21), m
        150    1.279E+02                                 F               0         Z-component position of node 50 (blade 2, node 21), m
        151    2.672E+00                                 F               0         X-component position of node 51 (blade 2, node 22), m
        152    8.854E+01                                 F               0         Y-component position of node 51 (blade 2, node 22), m
        153    1.270E+02                                 F               0         Z-component position of node 51 (blade 2, node 22), m
        154    2.460E+00                                 F               0         X-component position of node 52 (blade 2, node 23), m
        155    9.230E+01                                 F               0         Y-component position of node 52 (blade 2, node 23), m
        156    1.261E+02                                 F               0         Z-component position of node 52 (blade 2, node 23), m
        157    2.249E+00                                 F               0         X-component position of node 53 (blade 2, node 24), m
        158    9.605E+01                                 F               0         Y-component position of node 53 (blade 2, node 24), m
        159    1.252E+02                                 F               0         Z-component position of node 53 (blade 2, node 24), m
        160    2.038E+00                                 F               0         X-component position of node 54 (blade 2, node 25), m
        161    9.981E+01                                 F               0         Y-component position of node 54 (blade 2, node 25), m
        162    1.243E+02                                 F               0         Z-component position of node 54 (blade 2, node 25), m
        163    1.826E+00                                 F               0         X-component position of node 55 (blade 2, node 26), m
        164    1.036E+02                                 F               0         Y-component position of node 55 (blade 2, node 26), m
        165    1.234E+02                                 F               0         Z-component position of node 55 (blade 2, node 26), m
        166    1.615E+00                                 F               0         X-component position of node 56 (blade 2, node 27), m
        167    1.073E+02                                 F               0         Y-component position of node 56 (blade 2, node 27), m
        168    1.225E+02                                 F               0         Z-component position of node 56 (blade 2, node 27), m
        169    1.436E+00                                 F               0         X-component position of node 57 (blade 2, node 28), m
        170    1.105E+02                                 F               0         Y-component position of node 57 (blade 2, node 28), m
        171    1.218E+02                                 F               0         Z-component position of node 57 (blade 2, node 28), m
        172    9.092E+00                                 F               0         X-component position of node 58 (blade 3, node 1), m
        173   -8.674E+00                                 F               0         Y-component position of node 58 (blade 3, node 1), m
        174    1.551E+02                                 F               0         Z-component position of node 58 (blade 3, node 1), m
        175    9.342E+00                                 F               0         X-component position of node 59 (blade 3, node 2), m
        176   -9.047E+00                                 F               0         Y-component position of node 59 (blade 3, node 2), m
        177    1.564E+02                                 F               0         Z-component position of node 59 (blade 3, node 2), m
        178    1.275E+01                                 F               0         X-component position of node 60 (blade 3, node 3), m
        179   -1.411E+01                                 F               0         Y-component position of node 60 (blade 3, node 3), m
        180    1.735E+02                                 F               0         Z-component position of node 60 (blade 3, node 3), m
        181    1.347E+01                                 F               0         X-component position of node 61 (blade 3, node 4), m
        182   -1.519E+01                                 F               0         Y-component position of node 61 (blade 3, node 4), m
        183    1.771E+02                                 F               0         Z-component position of node 61 (blade 3, node 4), m
        184    1.420E+01                                 F               0         X-component position of node 62 (blade 3, node 5), m
        185   -1.627E+01                                 F               0         Y-component position of node 62 (blade 3, node 5), m
        186    1.808E+02                                 F               0         Z-component position of node 62 (blade 3, node 5), m
        187    1.492E+01                                 F               0         X-component position of node 63 (blade 3, node 6), m
        188   -1.735E+01                                 F               0         Y-component position of node 63 (blade 3, node 6), m
        189    1.844E+02                                 F               0         Z-component position of node 63 (blade 3, node 6), m
        190    1.565E+01                                 F               0         X-component position of node 64 (blade 3, node 7), m
        191   -1.843E+01                                 F               0         Y-component position of node 64 (blade 3, node 7), m
        192    1.881E+02                                 F               0         Z-component position of node 64 (blade 3, node 7), m
        193    1.637E+01                                 F               0         X-component position of node 65 (blade 3, node 8), m
        194   -1.951E+01                                 F               0         Y-component position of node 65 (blade 3, node 8), m
        195    1.917E+02                                 F               0         Z-component position of node 65 (blade 3, node 8), m
        196    1.710E+01                                 F               0         X-component position of node 66 (blade 3, node 9), m
        197   -2.059E+01                                 F               0         Y-component position of node 66 (blade 3, node 9), m
        198    1.953E+02                                 F               0         Z-component position of node 66 (blade 3, node 9), m
        199    1.782E+01                                 F               0         X-component position of node 67 (blade 3, node 10), m
        200   -2.167E+01                                 F               0         Y-component position of node 67 (blade 3, node 10), m
        201    1.990E+02                                 F               0         Z-component position of node 67 (blade 3, node 10), m
        202    1.855E+01                                 F               0         X-component position of node 68 (blade 3, node 11), m
        203   -2.275E+01                                 F               0         Y-component position of node 68 (blade 3, node 11), m
        204    2.026E+02                                 F               0         Z-component position of node 68 (blade 3, node 11), m
        205    1.927E+01                                 F               0         X-component position of node 69 (blade 3, node 12), m
        206   -2.383E+01                                 F               0         Y-component position of node 69 (blade 3, node 12), m
        207    2.063E+02                                 F               0         Z-component position of node 69 (blade 3, node 12), m
        208    2.000E+01                                 F               0         X-component position of node 70 (blade 3, node 13), m
        209   -2.491E+01                                 F               0         Y-component position of node 70 (blade 3, node 13), m
        210    2.099E+02                                 F               0         Z-component position of node 70 (blade 3, node 13), m
        211    2.072E+01                                 F               0         X-component position of node 71 (blade 3, node 14), m