
Linearized model: Predictions were generated on 11-Jan-2024 at 12:32:35 using OpenFAST, compiled as a 64-bit application using single precision at commit v3.5.1
 linked with  NWTC Subroutine Library; ElastoDyn; InflowWind; AeroDyn; ServoDyn; HydroDyn; MoorDyn (v2.0.0, 2023-09-18)

Description from the FAST input file: CCT-9 Campign 4 model. Input files to be run with OpenFAST 3.5.0. GitHub branch from Lu Wang (https://github.com/luwang00/openfast/tree/dev) compiled on March 7, 2023.

Simulation information:
   Simulation time:                   502.4750 s
   Rotor Speed:                         0.7076 rad/s
   Azimuth:                             5.2915 rad
   Wind Speed:                          8.0000 m/s
   Number of continuous states:         0
   Number of discrete states:           0
   Number of constraint states:         0
   Number of inputs:                   54
   Number of outputs:                   0
   Jacobians included in this file?    No

Order of inputs:
     Column   Operating Point                     Rotating Frame? Derivative Order Description
   ---------- ---------------                     --------------- ---------------- -----------
          1    4.482E+00                                 F               0         CoupledKinematics X translation displacement, node 1, m
          2    3.446E-01                                 F               0         CoupledKinematics Y translation displacement, node 1, m
          3   -4.744E+00                                 F               0         CoupledKinematics Z translation displacement, node 1, m
          4    4.419E+00                                 F               0         CoupledKinematics X translation displacement, node 2, m
          5    2.453E-01                                 F               0         CoupledKinematics Y translation displacement, node 2, m
          6   -2.324E-01                                 F               0         CoupledKinematics Z translation displacement, node 2, m
          7    4.764E+00                                 F               0         CoupledKinematics X translation displacement, node 3, m
          8   -8.339E-02                                 F               0         CoupledKinematics Y translation displacement, node 3, m
          9    4.958E+00                                 F               0         CoupledKinematics Z translation displacement, node 3, m
         10    9.965E-01,  4.258E-03, -8.381E-02         F               0         CoupledKinematics X orientation angle, node 1, rad
         11   -6.331E-04,  9.991E-01,  4.323E-02         F               0         CoupledKinematics Y orientation angle, node 1, rad
         12    8.391E-02, -4.302E-02,  9.955E-01         F               0         CoupledKinematics Z orientation angle, node 1, rad
         13    9.965E-01,  4.258E-03, -8.381E-02         F               0         CoupledKinematics X orientation angle, node 2, rad
         14   -6.331E-04,  9.991E-01,  4.323E-02         F               0         CoupledKinematics Y orientation angle, node 2, rad
         15    8.391E-02, -4.302E-02,  9.955E-01         F               0         CoupledKinematics Z orientation angle, node 2, rad
         16    9.965E-01,  4.258E-03, -8.381E-02         F               0         CoupledKinematics X orientation angle, node 3, rad
         17   -6.331E-04,  9.991E-01,  4.323E-02         F               0         CoupledKinematics Y orientation angle, node 3, rad
         18    8.391E-02, -4.302E-02,  9.955E-01         F               0         CoupledKinematics Z orientation angle, node 3, rad
         19   -4.542E-03                                 F               0         CoupledKinematics X translation velocity, node 1, m/s
         20    7.506E-04                                 F               0         CoupledKinematics Y translation velocity, node 1, m/s
         21    4.092E-03                                 F               0         CoupledKinematics Z translation velocity, node 1, m/s
         22   -4.902E-03                                 F               0         CoupledKinematics X translation velocity, node 2, m/s
         23    8.555E-04                                 F               0         CoupledKinematics Y translation velocity, node 2, m/s
         24    1.639E-03                                 F               0         CoupledKinematics Z translation velocity, node 2, m/s
         25   -4.700E-03                                 F               0         CoupledKinematics X translation velocity, node 3, m/s
         26    6.601E-04                                 F               0         CoupledKinematics Y translation velocity, node 3, m/s
         27    3.117E-03                                 F               0         CoupledKinematics Z translation velocity, node 3, m/s
         28   -2.386E-05                                 F               0         CoupledKinematics X rotation velocity, node 1, rad/s
         29    2.740E-06                                 F               0         CoupledKinematics Y rotation velocity, node 1, rad/s
         30    3.621E-06                                 F               0         CoupledKinematics Z rotation velocity, node 1, rad/s
         31   -2.386E-05                                 F               0         CoupledKinematics X rotation velocity, node 2, rad/s
         32    2.740E-06                                 F               0         CoupledKinematics Y rotation velocity, node 2, rad/s
         33    3.621E-06                                 F               0         CoupledKinematics Z rotation velocity, node 2, rad/s
         34   -2.386E-05                                 F               0         CoupledKinematics X rotation velocity, node 3, rad/s
         35    2.740E-06                                 F               0         CoupledKinematics Y rotation velocity, node 3, rad/s
         36    3.621E-06                                 F               0         CoupledKinematics Z rotation velocity, node 3, rad/s
         37   -6.545E-04                                 F               0         CoupledKinematics X translation acceleration, node 1, m/s^2
         38   -5.602E-05                                 F               0         CoupledKinematics Y translation acceleration, node 1, m/s^2
         39    4.590E-04                                 F               0         CoupledKinematics Z translation acceleration, node 1, m/s^2
         40    1.100E-04                                 F               0         CoupledKinematics X translation acceleration, node 2, m/s^2
         41   -9.953E-05                                 F               0         CoupledKinematics Y translation acceleration, node 2, m/s^2
         42    1.579E-03                                 F               0         CoupledKinematics Z translation acceleration, node 2, m/s^2
         43   -2.980E-04                                 F               0         CoupledKinematics X translation acceleration, node 3, m/s^2
         44    5.107E-04                                 F               0         CoupledKinematics Y translation acceleration, node 3, m/s^2
         45    7.432E-04                                 F               0         CoupledKinematics Z translation acceleration, node 3, m/s^2
         46    1.091E-05                                 F               0         CoupledKinematics X rotation acceleration, node 1, rad/s^2
         47   -3.071E-06                                 F               0         CoupledKinematics Y rotation acceleration, node 1, rad/s^2
         48   -7.565E-06                                 F               0         CoupledKinematics Z rotation acceleration, node 1, rad/s^2
         49    1.091E-05                                 F               0         CoupledKinematics X rotation acceleration, node 2, rad/s^2
         50   -3.071E-06                                 F               0         CoupledKinematics Y rotation acceleration, node 2, rad/s^2
         51   -7.565E-06                                 F               0         CoupledKinematics Z rotation acceleration, node 2, rad/s^2
         52    1.091E-05                                 F               0         CoupledKinematics X rotation acceleration, node 3, rad/s^2
         53   -3.071E-06                                 F               0         CoupledKinematics Y rotation acceleration, node 3, rad/s^2
         54   -7.565E-06                                 F               0         CoupledKinematics Z rotation acceleration, node 3, rad/s^2


Linearized state matrices:

