
Linearized model: Predictions were generated on 11-Jan-2024 at 12:32:35 using OpenFAST, compiled as a 64-bit application using single precision at commit v3.5.1
 linked with  NWTC Subroutine Library; ElastoDyn; InflowWind; AeroDyn; ServoDyn; HydroDyn; MoorDyn (v2.0.0, 2023-09-18)

Description from the FAST input file: CCT-9 Campign 4 model. Input files to be run with OpenFAST 3.5.0. GitHub branch from Lu Wang (https://github.com/luwang00/openfast/tree/dev) compiled on March 7, 2023.

Simulation information:
   Simulation time:                   507.9000 s
   Rotor Speed:                         0.7075 rad/s
   Azimuth:                             2.8458 rad
   Wind Speed:                          8.0000 m/s
   Number of continuous states:         0
   Number of discrete states:           0
   Number of constraint states:         0
   Number of inputs:                 1746
   Number of outputs:                   4
   Jacobians included in this file?    No

Order of inputs:
     Column   Operating Point                     Rotating Frame? Derivative Order Description
   ---------- ---------------                     --------------- ---------------- -----------
          1    7.272E+00                                 F               0         Tower X translation displacement, node 1, m
          2   -1.237E+00                                 F               0         Tower Y translation displacement, node 1, m
          3   -1.443E-01                                 F               0         Tower Z translation displacement, node 1, m
          4    8.316E+00                                 F               0         Tower X translation displacement, node 2, m
          5   -1.772E+00                                 F               0         Tower Y translation displacement, node 2, m
          6   -2.002E-01                                 F               0         Tower Z translation displacement, node 2, m
          7    9.375E+00                                 F               0         Tower X translation displacement, node 3, m
          8   -2.312E+00                                 F               0         Tower Y translation displacement, node 3, m
          9   -2.575E-01                                 F               0         Tower Z translation displacement, node 3, m
         10    1.045E+01                                 F               0         Tower X translation displacement, node 4, m
         11   -2.857E+00                                 F               0         Tower Y translation displacement, node 4, m
         12   -3.161E-01                                 F               0         Tower Z translation displacement, node 4, m
         13    1.153E+01                                 F               0         Tower X translation displacement, node 5, m
         14   -3.405E+00                                 F               0         Tower Y translation displacement, node 5, m
         15   -3.757E-01                                 F               0         Tower Z translation displacement, node 5, m
         16    1.262E+01                                 F               0         Tower X translation displacement, node 6, m
         17   -3.956E+00                                 F               0         Tower Y translation displacement, node 6, m
         18   -4.360E-01                                 F               0         Tower Z translation displacement, node 6, m
         19    1.371E+01                                 F               0         Tower X translation displacement, node 7, m
         20   -4.509E+00                                 F               0         Tower Y translation displacement, node 7, m
         21   -4.969E-01                                 F               0         Tower Z translation displacement, node 7, m
         22    1.481E+01                                 F               0         Tower X translation displacement, node 8, m
         23   -5.064E+00                                 F               0         Tower Y translation displacement, node 8, m
         24   -5.582E-01                                 F               0         Tower Z translation displacement, node 8, m
         25    1.590E+01                                 F               0         Tower X translation displacement, node 9, m
         26   -5.621E+00                                 F               0         Tower Y translation displacement, node 9, m
         27   -6.198E-01                                 F               0         Tower Z translation displacement, node 9, m
         28    1.701E+01                                 F               0         Tower X translation displacement, node 10, m
         29   -6.178E+00                                 F               0         Tower Y translation displacement, node 10, m
         30   -6.817E-01                                 F               0         Tower Z translation displacement, node 10, m
         31    1.811E+01                                 F               0         Tower X translation displacement, node 11, m
         32   -6.736E+00                                 F               0         Tower Y translation displacement, node 11, m
         33   -7.436E-01                                 F               0         Tower Z translation displacement, node 11, m
         34    9.965E-01,  4.209E-03, -8.386E-02         F               0         Tower X orientation angle, node 1, rad
         35   -5.699E-04,  9.991E-01,  4.337E-02         F               0         Tower Y orientation angle, node 1, rad
         36    8.397E-02, -4.317E-02,  9.955E-01         F               0         Tower Z orientation angle, node 1, rad
         37    9.964E-01,  4.261E-03, -8.507E-02         F               0         Tower X orientation angle, node 2, rad
         38   -5.367E-04,  9.990E-01,  4.376E-02         F               0         Tower Y orientation angle, node 2, rad
         39    8.517E-02, -4.355E-02,  9.954E-01         F               0         Tower Z orientation angle, node 2, rad
         40    9.963E-01,  4.307E-03, -8.611E-02         F               0         Tower X orientation angle, node 3, rad
         41   -5.066E-04,  9.990E-01,  4.411E-02         F               0         Tower Y orientation angle, node 3, rad
         42    8.622E-02, -4.390E-02,  9.953E-01         F               0         Tower Z orientation angle, node 3, rad
         43    9.962E-01,  4.345E-03, -8.697E-02         F               0         Tower X orientation angle, node 4, rad
         44   -4.799E-04,  9.990E-01,  4.441E-02         F               0         Tower Y orientation angle, node 4, rad
         45    8.707E-02, -4.420E-02,  9.952E-01         F               0         Tower Z orientation angle, node 4, rad
         46    9.961E-01,  4.375E-03, -8.765E-02         F               0         Tower X orientation angle, node 5, rad
         47   -4.569E-04,  9.990E-01,  4.468E-02         F               0         Tower Y orientation angle, node 5, rad
         48    8.776E-02, -4.446E-02,  9.951E-01         F               0         Tower Z orientation angle, node 5, rad
         49    9.961E-01,  4.399E-03, -8.817E-02         F               0         Tower X orientation angle, node 6, rad
         50   -4.375E-04,  9.990E-01,  4.490E-02         F               0         Tower Y orientation angle, node 6, rad
         51    8.828E-02, -4.468E-02,  9.951E-01         F               0         Tower Z orientation angle, node 6, rad
         52    9.961E-01,  4.416E-03, -8.855E-02         F               0         Tower X orientation angle, node 7, rad
         53   -4.220E-04,  9.990E-01,  4.507E-02         F               0         Tower Y orientation angle, node 7, rad
         54    8.866E-02, -4.486E-02,  9.951E-01         F               0         Tower Z orientation angle, node 7, rad
         55    9.960E-01,  4.427E-03, -8.880E-02         F               0         Tower X orientation angle, node 8, rad
         56   -4.099E-04,  9.990E-01,  4.521E-02         F               0         Tower Y orientation angle, node 8, rad
         57    8.891E-02, -4.499E-02,  9.950E-01         F               0         Tower Z orientation angle, node 8, rad
         58    9.960E-01,  4.435E-03, -8.896E-02         F               0         Tower X orientation angle, node 9, rad
         59   -4.010E-04,  9.990E-01,  4.531E-02         F               0         Tower Y orientation angle, node 9, rad
         60    8.907E-02, -4.509E-02,  9.950E-01         F               0         Tower Z orientation angle, node 9, rad
         61    9.960E-01,  4.439E-03, -8.905E-02         F               0         Tower X orientation angle, node 10, rad
         62   -3.952E-04,  9.990E-01,  4.538E-02         F               0         Tower Y orientation angle, node 10, rad
         63    8.916E-02, -4.516E-02,  9.950E-01         F               0         Tower Z orientation angle, node 10, rad
         64    9.960E-01,  4.441E-03, -8.909E-02         F               0         Tower X orientation angle, node 11, rad
         65   -3.920E-04,  9.990E-01,  4.541E-02         F               0         Tower Y orientation angle, node 11, rad
         66    8.920E-02, -4.520E-02,  9.950E-01         F               0         Tower Z orientation angle, node 11, rad
         67   -5.241E-03                                 F               0         Tower X translation velocity, node 1, m/s
         68   -2.678E-03                                 F               0         Tower Y translation velocity, node 1, m/s
         69    2.875E-03                                 F               0         Tower Z translation velocity, node 1, m/s
         70   -5.112E-03                                 F               0         Tower X translation velocity, node 2, m/s
         71   -4.083E-03                                 F               0         Tower Y translation velocity, node 2, m/s
         72    2.803E-03                                 F               0         Tower Z translation velocity, node 2, m/s
         73   -4.982E-03                                 F               0         Tower X translation velocity, node 3, m/s
         74   -5.508E-03                                 F               0         Tower Y translation velocity, node 3, m/s
         75    2.729E-03                                 F               0         Tower Z translation velocity, node 3, m/s
         76   -4.853E-03                                 F               0         Tower X translation velocity, node 4, m/s
         77   -6.946E-03                                 F               0         Tower Y translation velocity, node 4, m/s
         78    2.654E-03                                 F               0         Tower Z translation velocity, node 4, m/s
         79   -4.724E-03                                 F               0         Tower X translation velocity, node 5, m/s
         80   -8.396E-03                                 F               0         Tower Y translation velocity, node 5, m/s
         81    2.578E-03                                 F               0         Tower Z translation velocity, node 5, m/s
         82   -4.595E-03                                 F               0         Tower X translation velocity, node 6, m/s
         83   -9.857E-03                                 F               0         Tower Y translation velocity, node 6, m/s
         84    2.501E-03                                 F               0         Tower Z translation velocity, node 6, m/s
         85   -4.469E-03                                 F               0         Tower X translation velocity, node 7, m/s
         86   -1.132E-02                                 F               0         Tower Y translation velocity, node 7, m/s
         87    2.424E-03                                 F               0         Tower Z translation velocity, node 7, m/s
         88   -4.343E-03                                 F               0         Tower X translation velocity, node 8, m/s
         89   -1.280E-02                                 F               0         Tower Y translation velocity, node 8, m/s
         90    2.346E-03                                 F               0         Tower Z translation velocity, node 8, m/s
         91   -4.219E-03                                 F               0         Tower X translation velocity, node 9, m/s
         92   -1.428E-02                                 F               0         Tower Y translation velocity, node 9, m/s
         93    2.268E-03                                 F               0         Tower Z translation velocity, node 9, m/s
         94   -4.097E-03                                 F               0         Tower X translation velocity, node 10, m/s
         95   -1.576E-02                                 F               0         Tower Y translation velocity, node 10, m/s
         96    2.190E-03                                 F               0         Tower Z translation velocity, node 10, m/s
         97   -3.975E-03                                 F               0         Tower X translation velocity, node 11, m/s
         98   -1.724E-02                                 F               0         Tower Y translation velocity, node 11, m/s
         99    2.112E-03                                 F               0         Tower Z translation velocity, node 11, m/s
        100    1.885E+01                                 F               0         Hub X translation displacement, node 1, m
        101   -7.139E+00                                 F               0         Hub Y translation displacement, node 1, m
        102    1.793E-01                                 F               0         Hub Z translation displacement, node 1, m
        103    9.812E-01,  9.141E-03, -1.926E-01         F               0         Hub X orientation angle, node 1, rad
        104    5.659E-02, -9.685E-01,  2.423E-01         F               0         Hub Y orientation angle, node 1, rad
        105   -1.843E-01, -2.487E-01, -9.509E-01         F               0         Hub Z orientation angle, node 1, rad
        106    6.944E-01                                 F               0         Hub X rotation velocity, node 1, rad/s
        107    6.478E-03                                 F               0         Hub Y rotation velocity, node 1, rad/s
        108   -1.363E-01                                 F               0         Hub Z rotation velocity, node 1, rad/s
        109    9.791E-01,  3.787E-02, -1.997E-01         F               0         Blade root 1 X orientation angle, node 1, rad
        110    8.568E-02, -9.678E-01,  2.365E-01         F               0         Blade root 1 Y orientation angle, node 1, rad
        111   -1.843E-01, -2.487E-01, -9.509E-01         F               0         Blade root 1 Z orientation angle, node 1, rad
        112    9.864E-01,  1.159E-03, -1.645E-01         F               0         Blade root 2 X orientation angle, node 1, rad
        113   -1.587E-01,  2.691E-01, -9.500E-01         F               0         Blade root 2 Y orientation angle, node 1, rad
        114    4.316E-02,  9.631E-01,  2.656E-01         F               0         Blade root 2 Z orientation angle, node 1, rad
        115    9.769E-01, -1.162E-02, -2.134E-01         F               0         Blade root 3 X orientation angle, node 1, rad
        116    1.604E-01,  6.996E-01,  6.963E-01         F               0         Blade root 3 Y orientation angle, node 1, rad
        117    1.412E-01, -7.144E-01,  6.853E-01         F               0         Blade root 3 Z orientation angle, node 1, rad
        118    1.725E+01                                 F               0         Blade 1 X translation displacement, node 1, m
        119   -8.517E+00                                 F               0         Blade 1 Y translation displacement, node 1, m
        120   -1.060E+01                                 F               0         Blade 1 Z translation displacement, node 1, m
        121    1.687E+01                                 F               0         Blade 1 X translation displacement, node 2, m
        122   -8.849E+00                                 F               0         Blade 1 Y translation displacement, node 2, m
        123   -1.320E+01                                 F               0         Blade 1 Z translation displacement, node 2, m
        124    1.162E+01                                 F               0         Blade 1 X translation displacement, node 3, m
        125   -1.336E+01                                 F               0         Blade 1 Y translation displacement, node 3, m
        126   -4.851E+01                                 F               0         Blade 1 Z translation displacement, node 3, m
        127    1.050E+01                                 F               0         Blade 1 X translation displacement, node 4, m
        128   -1.432E+01                                 F               0         Blade 1 Y translation displacement, node 4, m
        129   -5.603E+01                                 F               0         Blade 1 Z translation displacement, node 4, m
        130    9.387E+00                                 F               0         Blade 1 X translation displacement, node 5, m
        131   -1.529E+01                                 F               0         Blade 1 Y translation displacement, node 5, m
        132   -6.356E+01                                 F               0         Blade 1 Z translation displacement, node 5, m
        133    8.270E+00                                 F               0         Blade 1 X translation displacement, node 6, m
        134   -1.625E+01                                 F               0         Blade 1 Y translation displacement, node 6, m
        135   -7.108E+01                                 F               0         Blade 1 Z translation displacement, node 6, m
        136    7.153E+00                                 F               0         Blade 1 X translation displacement, node 7, m
        137   -1.721E+01                                 F               0         Blade 1 Y translation displacement, node 7, m
        138   -7.861E+01                                 F               0         Blade 1 Z translation displacement, node 7, m
        139    6.036E+00                                 F               0         Blade 1 X translation displacement, node 8, m
        140   -1.817E+01                                 F               0         Blade 1 Y translation displacement, node 8, m
        141   -8.613E+01                                 F               0         Blade 1 Z translation displacement, node 8, m
        142    4.918E+00                                 F               0         Blade 1 X translation displacement, node 9, m
        143   -1.913E+01                                 F               0         Blade 1 Y translation displacement, node 9, m
        144   -9.365E+01                                 F               0         Blade 1 Z translation displacement, node 9, m
        145    3.801E+00                                 F               0         Blade 1 X translation displacement, node 10, m
        146   -2.010E+01                                 F               0         Blade 1 Y translation displacement, node 10, m
        147   -1.012E+02                                 F               0         Blade 1 Z translation displacement, node 10, m
        148    2.684E+00                                 F               0         Blade 1 X translation displacement, node 11, m
        149   -2.106E+01                                 F               0         Blade 1 Y translation displacement, node 11, m
        150   -1.087E+02                                 F               0         Blade 1 Z translation displacement, node 11, m
        151    1.567E+00                                 F               0         Blade 1 X translation displacement, node 12, m
        152   -2.202E+01                                 F               0         Blade 1 Y translation displacement, node 12, m
        153   -1.162E+02                                 F               0         Blade 1 Z translation displacement, node 12, m
        154    4.495E-01                                 F               0         Blade 1 X translation displacement, node 13, m
        155   -2.298E+01                                 F               0         Blade 1 Y translation displacement, node 13, m
        156   -1.238E+02                                 F               0         Blade 1 Z translation displacement, node 13, m
        157   -6.677E-01                                 F               0         Blade 1 X translation displacement, node 14, m
        158   -2.394E+01                                 F               0         Blade 1 Y translation displacement, node 14, m
        159   -1.313E+02                                 F               0         Blade 1 Z translation displacement, node 14, m
        160   -1.785E+00                                 F               0         Blade 1 X translation displacement, node 15, m
        161   -2.491E+01                                 F               0         Blade 1 Y translation displacement, node 15, m
        162   -1.388E+02                                 F               0         Blade 1 Z translation displacement, node 15, m
        163   -2.902E+00                                 F               0         Blade 1 X translation displacement, node 16, m
        164   -2.587E+01                                 F               0         Blade 1 Y translation displacement, node 16, m
        165   -1.463E+02                                 F               0         Blade 1 Z translation displacement, node 16, m
        166   -4.019E+00                                 F               0         Blade 1 X translation displacement, node 17, m
        167   -2.683E+01                                 F               0         Blade 1 Y translation displacement, node 17, m
        168   -1.538E+02                                 F               0         Blade 1 Z translation displacement, node 17, m
        169   -5.137E+00                                 F               0         Blade 1 X translation displacement, node 18, m
        170   -2.779E+01                                 F               0         Blade 1 Y translation displacement, node 18, m
        171   -1.614E+02                                 F               0         Blade 1 Z translation displacement, node 18, m
        172   -6.254E+00                                 F               0         Blade 1 X translation displacement, node 19, m
        173   -2.875E+01                                 F               0         Blade 1 Y translation displacement, node 19, m
        174   -1.689E+02                                 F               0         Blade 1 Z translation displacement, node 19, m
        175   -7.371E+00                                 F               0         Blade 1 X translation displacement, node 20, m
        176   -2.971E+01                                 F               0         Blade 1 Y translation displacement, node 20, m
        177   -1.764E+02                                 F               0         Blade 1 Z translation displacement, node 20, m
        178   -8.488E+00                                 F               0         Blade 1 X translation displacement, node 21, m
        179   -3.068E+01                                 F               0         Blade 1 Y translation displacement, node 21, m
        180   -1.839E+02                                 F               0         Blade 1 Z translation displacement, node 21, m
        181   -9.606E+00                                 F               0         Blade 1 X translation displacement, node 22, m
        182   -3.164E+01                                 F               0         Blade 1 Y translation displacement, node 22, m
        183   -1.915E+02                                 F               0         Blade 1 Z translation displacement, node 22, m
        184   -1.072E+01                                 F               0         Blade 1 X translation displacement, node 23, m
        185   -3.260E+01                                 F               0         Blade 1 Y translation displacement, node 23, m
        186   -1.990E+02                                 F               0         Blade 1 Z translation displacement, node 23, m
        187   -1.184E+01                                 F               0         Blade 1 X translation displacement, node 24, m
        188   -3.356E+01                                 F               0         Blade 1 Y translation displacement, node 24, m
        189   -2.065E+02                                 F               0         Blade 1 Z translation displacement, node 24, m
        190   -1.296E+01                                 F               0         Blade 1 X translation displacement, node 25, m
        191   -3.452E+01                                 F               0         Blade 1 Y translation displacement, node 25, m
        192   -2.140E+02                                 F               0         Blade 1 Z translation displacement, node 25, m
        193   -1.407E+01                                 F               0         Blade 1 X translation displacement, node 26, m
        194   -3.549E+01                                 F               0         Blade 1 Y translation displacement, node 26, m
        195   -2.216E+02                                 F               0         Blade 1 Z translation displacement, node 26, m
        196   -1.519E+01                                 F               0         Blade 1 X translation displacement, node 27, m
        197   -3.645E+01                                 F               0         Blade 1 Y translation displacement, node 27, m
        198   -2.291E+02                                 F               0         Blade 1 Z translation displacement, node 27, m
        199   -1.614E+01                                 F               0         Blade 1 X translation displacement, node 28, m
        200   -3.726E+01                                 F               0         Blade 1 Y translation displacement, node 28, m
        201   -2.355E+02                                 F               0         Blade 1 Z translation displacement, node 28, m
        202    8.323E-01,  4.751E-01, -2.856E-01         F               0         Blade 1 X orientation angle, node 1, rad
        203    5.227E-01, -8.441E-01,  1.194E-01         F               0         Blade 1 Y orientation angle, node 1, rad
        204   -1.843E-01, -2.487E-01, -9.509E-01         F               0         Blade 1 Z orientation angle, node 1, rad
        205    8.323E-01,  4.751E-01, -2.856E-01         F               0         Blade 1 X orientation angle, node 2, rad
        206    5.227E-01, -8.441E-01,  1.194E-01         F               0         Blade 1 Y orientation angle, node 2, rad
        207   -1.843E-01, -2.487E-01, -9.509E-01         F               0         Blade 1 Z orientation angle, node 2, rad
        208    9.325E-01,  2.615E-01, -2.492E-01         F               0         Blade 1 X orientation angle, node 3, rad
        209    3.106E-01, -9.326E-01,  1.837E-01         F               0         Blade 1 Y orientation angle, node 3, rad
        210   -1.843E-01, -2.487E-01, -9.509E-01         F               0         Blade 1 Z orientation angle, node 3, rad
        211    9.448E-01,  2.218E-01, -2.412E-01         F               0         Blade 1 X orientation angle, node 4, rad
        212    2.709E-01, -9.428E-01,  1.941E-01         F               0         Blade 1 Y orientation angle, node 4, rad
        213   -1.843E-01, -2.487E-01, -9.509E-01         F               0         Blade 1 Z orientation angle, node 4, rad
        214    9.532E-01,  1.905E-01, -2.346E-01         F               0         Blade 1 X orientation angle, node 5, rad
        215    2.395E-01, -9.497E-01,  2.019E-01         F               0         Blade 1 Y orientation angle, node 5, rad
        216   -1.843E-01, -2.487E-01, -9.509E-01         F               0         Blade 1 Z orientation angle, node 5, rad
        217    9.593E-01,  1.652E-01, -2.292E-01         F               0         Blade 1 X orientation angle, node 6, rad
        218    2.141E-01, -9.544E-01,  2.081E-01         F               0         Blade 1 Y orientation angle, node 6, rad
        219   -1.843E-01, -2.487E-01, -9.509E-01         F               0         Blade 1 Z orientation angle, node 6, rad
        220    9.637E-01,  1.443E-01, -2.246E-01         F               0         Blade 1 X orientation angle, node 7, rad
        221    1.931E-01, -9.578E-01,  2.131E-01         F               0         Blade 1 Y orientation angle, node 7, rad
        222   -1.843E-01, -2.487E-01, -9.509E-01         F               0         Blade 1 Z orientation angle, node 7, rad
        223    9.671E-01,  1.269E-01, -2.207E-01         F               0         Blade 1 X orientation angle, node 8, rad
        224    1.756E-01, -9.602E-01,  2.171E-01         F               0         Blade 1 Y orientation angle, node 8, rad
        225   -1.843E-01, -2.487E-01, -9.509E-01         F               0         Blade 1 Z orientation angle, node 8, rad
        226    9.696E-01,  1.122E-01, -2.173E-01         F               0         Blade 1 X orientation angle, node 9, rad
        227    1.607E-01, -9.621E-01,  2.205E-01         F               0         Blade 1 Y orientation angle, node 9, rad