
Linearized model: Predictions were generated on 11-Jan-2024 at 12:32:35 using OpenFAST, compiled as a 64-bit application using single precision at commit v3.5.1
 linked with  NWTC Subroutine Library; ElastoDyn; InflowWind; AeroDyn; ServoDyn; HydroDyn; MoorDyn (v2.0.0, 2023-09-18)

Description from the FAST input file: CCT-9 Campign 4 model. Input files to be run with OpenFAST 3.5.0. GitHub branch from Lu Wang (https://github.com/luwang00/openfast/tree/dev) compiled on March 7, 2023.

Simulation information:
   Simulation time:                   501.2500 s
   Rotor Speed:                         0.7077 rad/s
   Azimuth:                             4.4246 rad
   Wind Speed:                          8.0000 m/s
   Number of continuous states:         0
   Number of discrete states:           0
   Number of constraint states:         0
   Number of inputs:                 1746
   Number of outputs:                   4
   Jacobians included in this file?    No

Order of inputs:
     Column   Operating Point                     Rotating Frame? Derivative Order Description
   ---------- ---------------                     --------------- ---------------- -----------
          1    7.304E+00                                 F               0         Tower X translation displacement, node 1, m
          2   -1.240E+00                                 F               0         Tower Y translation displacement, node 1, m
          3   -1.685E-01                                 F               0         Tower Z translation displacement, node 1, m
          4    8.347E+00                                 F               0         Tower X translation displacement, node 2, m
          5   -1.774E+00                                 F               0         Tower Y translation displacement, node 2, m
          6   -2.242E-01                                 F               0         Tower Z translation displacement, node 2, m
          7    9.406E+00                                 F               0         Tower X translation displacement, node 3, m
          8   -2.313E+00                                 F               0         Tower Y translation displacement, node 3, m
          9   -2.814E-01                                 F               0         Tower Z translation displacement, node 3, m
         10    1.048E+01                                 F               0         Tower X translation displacement, node 4, m
         11   -2.856E+00                                 F               0         Tower Y translation displacement, node 4, m
         12   -3.399E-01                                 F               0         Tower Z translation displacement, node 4, m
         13    1.156E+01                                 F               0         Tower X translation displacement, node 5, m
         14   -3.402E+00                                 F               0         Tower Y translation displacement, node 5, m
         15   -3.993E-01                                 F               0         Tower Z translation displacement, node 5, m
         16    1.264E+01                                 F               0         Tower X translation displacement, node 6, m
         17   -3.952E+00                                 F               0         Tower Y translation displacement, node 6, m
         18   -4.595E-01                                 F               0         Tower Z translation displacement, node 6, m
         19    1.374E+01                                 F               0         Tower X translation displacement, node 7, m
         20   -4.504E+00                                 F               0         Tower Y translation displacement, node 7, m
         21   -5.203E-01                                 F               0         Tower Z translation displacement, node 7, m
         22    1.483E+01                                 F               0         Tower X translation displacement, node 8, m
         23   -5.057E+00                                 F               0         Tower Y translation displacement, node 8, m
         24   -5.815E-01                                 F               0         Tower Z translation displacement, node 8, m
         25    1.593E+01                                 F               0         Tower X translation displacement, node 9, m
         26   -5.612E+00                                 F               0         Tower Y translation displacement, node 9, m
         27   -6.430E-01                                 F               0         Tower Z translation displacement, node 9, m
         28    1.703E+01                                 F               0         Tower X translation displacement, node 10, m
         29   -6.169E+00                                 F               0         Tower Y translation displacement, node 10, m
         30   -7.046E-01                                 F               0         Tower Z translation displacement, node 10, m
         31    1.813E+01                                 F               0         Tower X translation displacement, node 11, m
         32   -6.725E+00                                 F               0         Tower Y translation displacement, node 11, m
         33   -7.664E-01                                 F               0         Tower Z translation displacement, node 11, m
         34    9.965E-01,  4.250E-03, -8.380E-02         F               0         Tower X orientation angle, node 1, rad
         35   -6.221E-04,  9.991E-01,  4.327E-02         F               0         Tower Y orientation angle, node 1, rad
         36    8.391E-02, -4.306E-02,  9.955E-01         F               0         Tower Z orientation angle, node 1, rad
         37    9.964E-01,  4.302E-03, -8.501E-02         F               0         Tower X orientation angle, node 2, rad
         38   -5.893E-04,  9.990E-01,  4.366E-02         F               0         Tower Y orientation angle, node 2, rad
         39    8.511E-02, -4.345E-02,  9.954E-01         F               0         Tower Z orientation angle, node 2, rad
         40    9.963E-01,  4.348E-03, -8.605E-02         F               0         Tower X orientation angle, node 3, rad
         41   -5.594E-04,  9.990E-01,  4.400E-02         F               0         Tower Y orientation angle, node 3, rad
         42    8.616E-02, -4.379E-02,  9.953E-01         F               0         Tower Z orientation angle, node 3, rad
         43    9.962E-01,  4.386E-03, -8.690E-02         F               0         Tower X orientation angle, node 4, rad
         44   -5.330E-04,  9.990E-01,  4.431E-02         F               0         Tower Y orientation angle, node 4, rad
         45    8.701E-02, -4.409E-02,  9.952E-01         F               0         Tower Z orientation angle, node 4, rad
         46    9.961E-01,  4.416E-03, -8.759E-02         F               0         Tower X orientation angle, node 5, rad
         47   -5.102E-04,  9.990E-01,  4.457E-02         F               0         Tower Y orientation angle, node 5, rad
         48    8.770E-02, -4.435E-02,  9.952E-01         F               0         Tower Z orientation angle, node 5, rad
         49    9.961E-01,  4.440E-03, -8.811E-02         F               0         Tower X orientation angle, node 6, rad
         50   -4.910E-04,  9.990E-01,  4.479E-02         F               0         Tower Y orientation angle, node 6, rad
         51    8.822E-02, -4.457E-02,  9.951E-01         F               0         Tower Z orientation angle, node 6, rad
         52    9.961E-01,  4.456E-03, -8.848E-02         F               0         Tower X orientation angle, node 7, rad
         53   -4.756E-04,  9.990E-01,  4.496E-02         F               0         Tower Y orientation angle, node 7, rad
         54    8.859E-02, -4.474E-02,  9.951E-01         F               0         Tower Z orientation angle, node 7, rad
         55    9.960E-01,  4.468E-03, -8.874E-02         F               0         Tower X orientation angle, node 8, rad
         56   -4.636E-04,  9.990E-01,  4.510E-02         F               0         Tower Y orientation angle, node 8, rad
         57    8.885E-02, -4.488E-02,  9.950E-01         F               0         Tower Z orientation angle, node 8, rad
         58    9.960E-01,  4.475E-03, -8.890E-02         F               0         Tower X orientation angle, node 9, rad
         59   -4.548E-04,  9.990E-01,  4.520E-02         F               0         Tower Y orientation angle, node 9, rad
         60    8.901E-02, -4.498E-02,  9.950E-01         F               0         Tower Z orientation angle, node 9, rad
         61    9.960E-01,  4.480E-03, -8.899E-02         F               0         Tower X orientation angle, node 10, rad
         62   -4.491E-04,  9.990E-01,  4.526E-02         F               0         Tower Y orientation angle, node 10, rad
         63    8.910E-02, -4.504E-02,  9.950E-01         F               0         Tower Z orientation angle, node 10, rad
         64    9.960E-01,  4.481E-03, -8.903E-02         F               0         Tower X orientation angle, node 11, rad
         65   -4.459E-04,  9.990E-01,  4.530E-02         F               0         Tower Y orientation angle, node 11, rad
         66    8.914E-02, -4.508E-02,  9.950E-01         F               0         Tower Z orientation angle, node 11, rad
         67   -3.982E-03                                 F               0         Tower X translation velocity, node 1, m/s
         68    2.127E-03                                 F               0         Tower Y translation velocity, node 1, m/s
         69    1.703E-03                                 F               0         Tower Z translation velocity, node 1, m/s
         70   -3.851E-03                                 F               0         Tower X translation velocity, node 2, m/s
         71    2.701E-03                                 F               0         Tower Y translation velocity, node 2, m/s
         72    1.717E-03                                 F               0         Tower Z translation velocity, node 2, m/s
         73   -3.732E-03                                 F               0         Tower X translation velocity, node 3, m/s
         74    3.299E-03                                 F               0         Tower Y translation velocity, node 3, m/s
         75    1.733E-03                                 F               0         Tower Z translation velocity, node 3, m/s
         76   -3.624E-03                                 F               0         Tower X translation velocity, node 4, m/s
         77    3.916E-03                                 F               0         Tower Y translation velocity, node 4, m/s
         78    1.751E-03                                 F               0         Tower Z translation velocity, node 4, m/s
         79   -3.526E-03                                 F               0         Tower X translation velocity, node 5, m/s
         80    4.551E-03                                 F               0         Tower Y translation velocity, node 5, m/s
         81    1.771E-03                                 F               0         Tower Z translation velocity, node 5, m/s
         82   -3.437E-03                                 F               0         Tower X translation velocity, node 6, m/s
         83    5.202E-03                                 F               0         Tower Y translation velocity, node 6, m/s
         84    1.792E-03                                 F               0         Tower Z translation velocity, node 6, m/s
         85   -3.357E-03                                 F               0         Tower X translation velocity, node 7, m/s
         86    5.864E-03                                 F               0         Tower Y translation velocity, node 7, m/s
         87    1.815E-03                                 F               0         Tower Z translation velocity, node 7, m/s
         88   -3.285E-03                                 F               0         Tower X translation velocity, node 8, m/s
         89    6.538E-03                                 F               0         Tower Y translation velocity, node 8, m/s
         90    1.838E-03                                 F               0         Tower Z translation velocity, node 8, m/s
         91   -3.219E-03                                 F               0         Tower X translation velocity, node 9, m/s
         92    7.220E-03                                 F               0         Tower Y translation velocity, node 9, m/s
         93    1.863E-03                                 F               0         Tower Z translation velocity, node 9, m/s
         94   -3.159E-03                                 F               0         Tower X translation velocity, node 10, m/s
         95    7.908E-03                                 F               0         Tower Y translation velocity, node 10, m/s
         96    1.889E-03                                 F               0         Tower Z translation velocity, node 10, m/s
         97   -3.103E-03                                 F               0         Tower X translation velocity, node 11, m/s
         98    8.600E-03                                 F               0         Tower Y translation velocity, node 11, m/s
         99    1.916E-03                                 F               0         Tower Z translation velocity, node 11, m/s
        100    1.888E+01                                 F               0         Hub X translation displacement, node 1, m
        101   -7.128E+00                                 F               0         Hub Y translation displacement, node 1, m
        102    1.559E-01                                 F               0         Hub Z translation displacement, node 1, m
        103    9.812E-01,  9.169E-03, -1.925E-01         F               0         Hub X orientation angle, node 1, rad
        104   -1.847E-01, -2.410E-01, -9.528E-01         F               0         Hub Y orientation angle, node 1, rad
        105   -5.513E-02,  9.705E-01, -2.348E-01         F               0         Hub Z orientation angle, node 1, rad
        106    6.944E-01                                 F               0         Hub X rotation velocity, node 1, rad/s
        107    6.493E-03                                 F               0         Hub Y rotation velocity, node 1, rad/s
        108   -1.363E-01                                 F               0         Hub Z rotation velocity, node 1, rad/s
        109    9.863E-01,  1.631E-02, -1.642E-01         F               0         Blade root 1 X orientation angle, node 1, rad
        110   -1.555E-01, -2.406E-01, -9.581E-01         F               0         Blade root 1 Y orientation angle, node 1, rad
        111   -5.513E-02,  9.705E-01, -2.348E-01         F               0         Blade root 1 Z orientation angle, node 1, rad
        112    9.795E-01, -1.934E-02, -2.006E-01         F               0         Blade root 2 X orientation angle, node 1, rad
        113    7.370E-02,  9.608E-01,  2.673E-01         F               0         Blade root 2 Y orientation angle, node 1, rad
        114    1.875E-01, -2.765E-01,  9.425E-01         F               0         Blade root 2 Z orientation angle, node 1, rad
        115    9.767E-01,  3.052E-02, -2.126E-01         F               0         Blade root 3 X orientation angle, node 1, rad
        116    1.692E-01, -7.194E-01,  6.737E-01         F               0         Blade root 3 Y orientation angle, node 1, rad
        117   -1.324E-01, -6.939E-01, -7.078E-01         F               0         Blade root 3 Z orientation angle, node 1, rad
        118    1.799E+01                                 F               0         Blade 1 X translation displacement, node 1, m
        119   -1.751E+00                                 F               0         Blade 1 Y translation displacement, node 1, m
        120   -6.654E+00                                 F               0         Blade 1 Z translation displacement, node 1, m
        121    1.778E+01                                 F               0         Blade 1 X translation displacement, node 2, m
        122   -4.556E-01                                 F               0         Blade 1 Y translation displacement, node 2, m
        123   -8.295E+00                                 F               0         Blade 1 Z translation displacement, node 2, m
        124    1.488E+01                                 F               0         Blade 1 X translation displacement, node 3, m
        125    1.716E+01                                 F               0         Blade 1 Y translation displacement, node 3, m
        126   -3.061E+01                                 F               0         Blade 1 Z translation displacement, node 3, m
        127    1.426E+01                                 F               0         Blade 1 X translation displacement, node 4, m
        128    2.091E+01                                 F               0         Blade 1 Y translation displacement, node 4, m
        129   -3.536E+01                                 F               0         Blade 1 Z translation displacement, node 4, m
        130    1.364E+01                                 F               0         Blade 1 X translation displacement, node 5, m
        131    2.467E+01                                 F               0         Blade 1 Y translation displacement, node 5, m
        132   -4.012E+01                                 F               0         Blade 1 Z translation displacement, node 5, m
        133    1.303E+01                                 F               0         Blade 1 X translation displacement, node 6, m
        134    2.842E+01                                 F               0         Blade 1 Y translation displacement, node 6, m
        135   -4.487E+01                                 F               0         Blade 1 Z translation displacement, node 6, m
        136    1.241E+01                                 F               0         Blade 1 X translation displacement, node 7, m
        137    3.218E+01                                 F               0         Blade 1 Y translation displacement, node 7, m
        138   -4.963E+01                                 F               0         Blade 1 Z translation displacement, node 7, m
        139    1.179E+01                                 F               0         Blade 1 X translation displacement, node 8, m
        140    3.593E+01                                 F               0         Blade 1 Y translation displacement, node 8, m
        141   -5.438E+01                                 F               0         Blade 1 Z translation displacement, node 8, m
        142    1.117E+01                                 F               0         Blade 1 X translation displacement, node 9, m
        143    3.968E+01                                 F               0         Blade 1 Y translation displacement, node 9, m
        144   -5.914E+01                                 F               0         Blade 1 Z translation displacement, node 9, m
        145    1.056E+01                                 F               0         Blade 1 X translation displacement, node 10, m
        146    4.344E+01                                 F               0         Blade 1 Y translation displacement, node 10, m
        147   -6.389E+01                                 F               0         Blade 1 Z translation displacement, node 10, m
        148    9.939E+00                                 F               0         Blade 1 X translation displacement, node 11, m
        149    4.719E+01                                 F               0         Blade 1 Y translation displacement, node 11, m
        150   -6.865E+01                                 F               0         Blade 1 Z translation displacement, node 11, m
        151    9.321E+00                                 F               0         Blade 1 X translation displacement, node 12, m
        152    5.094E+01                                 F               0         Blade 1 Y translation displacement, node 12, m
        153   -7.340E+01                                 F               0         Blade 1 Z translation displacement, node 12, m
        154    8.704E+00                                 F               0         Blade 1 X translation displacement, node 13, m
        155    5.470E+01                                 F               0         Blade 1 Y translation displacement, node 13, m
        156   -7.816E+01                                 F               0         Blade 1 Z translation displacement, node 13, m
        157    8.087E+00                                 F               0         Blade 1 X translation displacement, node 14, m
        158    5.845E+01                                 F               0         Blade 1 Y translation displacement, node 14, m
        159   -8.291E+01                                 F               0         Blade 1 Z translation displacement, node 14, m
        160    7.469E+00                                 F               0         Blade 1 X translation displacement, node 15, m
        161    6.220E+01                                 F               0         Blade 1 Y translation displacement, node 15, m
        162   -8.766E+01                                 F               0         Blade 1 Z translation displacement, node 15, m
        163    6.851E+00                                 F               0         Blade 1 X translation displacement, node 16, m
        164    6.596E+01                                 F               0         Blade 1 Y translation displacement, node 16, m
        165   -9.242E+01                                 F               0         Blade 1 Z translation displacement, node 16, m
        166    6.234E+00                                 F               0         Blade 1 X translation displacement, node 17, m
        167    6.971E+01                                 F               0         Blade 1 Y translation displacement, node 17, m
        168   -9.717E+01                                 F               0         Blade 1 Z translation displacement, node 17, m
        169    5.616E+00                                 F               0         Blade 1 X translation displacement, node 18, m
        170    7.346E+01                                 F               0         Blade 1 Y translation displacement, node 18, m
        171   -1.019E+02                                 F               0         Blade 1 Z translation displacement, node 18, m
        172    4.999E+00                                 F               0         Blade 1 X translation displacement, node 19, m
        173    7.722E+01                                 F               0         Blade 1 Y translation displacement, node 19, m
        174   -1.067E+02                                 F               0         Blade 1 Z translation displacement, node 19, m
        175    4.381E+00                                 F               0         Blade 1 X translation displacement, node 20, m
        176    8.097E+01                                 F               0         Blade 1 Y translation displacement, node 20, m
        177   -1.114E+02                                 F               0         Blade 1 Z translation displacement, node 20, m
        178    3.764E+00                                 F               0         Blade 1 X translation displacement, node 21, m
        179    8.472E+01                                 F               0         Blade 1 Y translation displacement, node 21, m
        180   -1.162E+02                                 F               0         Blade 1 Z translation displacement, node 21, m
        181    3.146E+00                                 F               0         Blade 1 X translation displacement, node 22, m
        182    8.848E+01                                 F               0         Blade 1 Y translation displacement, node 22, m
        183   -1.209E+02                                 F               0         Blade 1 Z translation displacement, node 22, m
        184    2.529E+00                                 F               0         Blade 1 X translation displacement, node 23, m
        185    9.223E+01                                 F               0         Blade 1 Y translation displacement, node 23, m
        186   -1.257E+02                                 F               0         Blade 1 Z translation displacement, node 23, m
        187    1.911E+00                                 F               0         Blade 1 X translation displacement, node 24, m
        188    9.599E+01                                 F               0         Blade 1 Y translation displacement, node 24, m
        189   -1.305E+02                                 F               0         Blade 1 Z translation displacement, node 24, m
        190    1.294E+00                                 F               0         Blade 1 X translation displacement, node 25, m
        191    9.974E+01                                 F               0         Blade 1 Y translation displacement, node 25, m
        192   -1.352E+02                                 F               0         Blade 1 Z translation displacement, node 25, m
        193    6.761E-01                                 F               0         Blade 1 X translation displacement, node 26, m
        194    1.035E+02                                 F               0         Blade 1 Y translation displacement, node 26, m
        195   -1.400E+02                                 F               0         Blade 1 Z translation displacement, node 26, m
        196    5.858E-02                                 F               0         Blade 1 X translation displacement, node 27, m
        197    1.072E+02                                 F               0         Blade 1 Y translation displacement, node 27, m
        198   -1.447E+02                                 F               0         Blade 1 Z translation displacement, node 27, m
        199   -4.649E-01                                 F               0         Blade 1 X translation displacement, node 28, m
        200    1.104E+02                                 F               0         Blade 1 Y translation displacement, node 28, m
        201   -1.487E+02                                 F               0         Blade 1 Z translation displacement, node 28, m
        202    9.487E-01,  1.242E-01,  2.908E-01         F               0         Blade 1 X orientation angle, node 1, rad
        203    3.114E-01, -2.067E-01, -9.275E-01         F               0         Blade 1 Y orientation angle, node 1, rad
        204   -5.513E-02,  9.705E-01, -2.348E-01         F               0         Blade 1 Z orientation angle, node 1, rad
        205    9.487E-01,  1.242E-01,  2.908E-01         F               0         Blade 1 X orientation angle, node 2, rad
        206    3.114E-01, -2.067E-01, -9.275E-01         F               0         Blade 1 Y orientation angle, node 2, rad
        207   -5.513E-02,  9.705E-01, -2.348E-01         F               0         Blade 1 Z orientation angle, node 2, rad
        208    9.955E-01,  7.171E-02,  6.265E-02         F               0         Blade 1 X orientation angle, node 3, rad
        209    7.763E-02, -2.302E-01, -9.700E-01         F               0         Blade 1 Y orientation angle, node 3, rad
        210   -5.513E-02,  9.705E-01, -2.348E-01         F               0         Blade 1 Z orientation angle, node 3, rad
        211    9.978E-01,  6.192E-02,  2.163E-02         F               0         Blade 1 X orientation angle, node 4, rad
        212    3.553E-02, -2.331E-01, -9.718E-01         F               0         Blade 1 Y orientation angle, node 4, rad
        213   -5.513E-02,  9.705E-01, -2.348E-01         F               0         Blade 1 Z orientation angle, node 4, rad
        214    9.985E-01,  5.416E-02, -1.060E-02         F               0         Blade 1 X orientation angle, node 5, rad
        215    2.429E-03, -2.350E-01, -9.720E-01         F               0         Blade 1 Y orientation angle, node 5, rad
        216   -5.513E-02,  9.705E-01, -2.348E-01         F               0         Blade 1 Z orientation angle, node 5, rad
        217    9.982E-01,  4.791E-02, -3.638E-02         F               0         Blade 1 X orientation angle, node 6, rad
        218   -2.406E-02, -2.363E-01, -9.714E-01         F               0         Blade 1 Y orientation angle, node 6, rad
        219   -5.513E-02,  9.705E-01, -2.348E-01         F               0         Blade 1 Z orientation angle, node 6, rad
        220    9.974E-01,  4.274E-02, -5.756E-02         F               0         Blade 1 X orientation angle, node 7, rad
        221   -4.583E-02, -2.373E-01, -9.703E-01         F               0         Blade 1 Y orientation angle, node 7, rad
        222   -5.513E-02,  9.705E-01, -2.348E-01         F               0         Blade 1 Z orientation angle, node 7, rad
        223    9.964E-01,  3.843E-02, -7.516E-02         F               0         Blade 1 X orientation angle, node 8, rad
        224   -6.392E-02, -2.381E-01, -9.691E-01         F               0         Blade 1 Y orientation angle, node 8, rad
        225   -5.513E-02,  9.705E-01, -2.348E-01         F               0         Blade 1 Z orientation angle, node 8, rad
        226    9.953E-01,  3.477E-02, -9.004E-02         F               0         Blade 1 X orientation angle, node 9, rad
        227   -7.922E-02, -2.386E-01, -9.679E-01         F               0         Blade 1 Y orientation angle, node 9, rad