
Linearized model: Predictions were generated on 11-Jan-2024 at 12:32:35 using OpenFAST, compiled as a 64-bit application using single precision at commit v3.5.1
 linked with  NWTC Subroutine Library; ElastoDyn; InflowWind; AeroDyn; ServoDyn; HydroDyn; MoorDyn (v2.0.0, 2023-09-18)

Description from the FAST input file: CCT-9 Campign 4 model. Input files to be run with OpenFAST 3.5.0. GitHub branch from Lu Wang (https://github.com/luwang00/openfast/tree/dev) compiled on March 7, 2023.

Simulation information:
   Simulation time:                   500.7500 s
   Rotor Speed:                         0.7077 rad/s
   Azimuth:                             4.0708 rad
   Wind Speed:                          8.0000 m/s
   Number of continuous states:         0
   Number of discrete states:           0
   Number of constraint states:         0
   Number of inputs:                 1746
   Number of outputs:                   4
   Jacobians included in this file?    No

Order of inputs:
     Column   Operating Point                     Rotating Frame? Derivative Order Description
   ---------- ---------------                     --------------- ---------------- -----------
          1    7.306E+00                                 F               0         Tower X translation displacement, node 1, m
          2   -1.241E+00                                 F               0         Tower Y translation displacement, node 1, m
          3   -1.692E-01                                 F               0         Tower Z translation displacement, node 1, m
          4    8.349E+00                                 F               0         Tower X translation displacement, node 2, m
          5   -1.775E+00                                 F               0         Tower Y translation displacement, node 2, m
          6   -2.249E-01                                 F               0         Tower Z translation displacement, node 2, m
          7    9.408E+00                                 F               0         Tower X translation displacement, node 3, m
          8   -2.315E+00                                 F               0         Tower Y translation displacement, node 3, m
          9   -2.822E-01                                 F               0         Tower Z translation displacement, node 3, m
         10    1.048E+01                                 F               0         Tower X translation displacement, node 4, m
         11   -2.858E+00                                 F               0         Tower Y translation displacement, node 4, m
         12   -3.406E-01                                 F               0         Tower Z translation displacement, node 4, m
         13    1.156E+01                                 F               0         Tower X translation displacement, node 5, m
         14   -3.405E+00                                 F               0         Tower Y translation displacement, node 5, m
         15   -4.001E-01                                 F               0         Tower Z translation displacement, node 5, m
         16    1.265E+01                                 F               0         Tower X translation displacement, node 6, m
         17   -3.955E+00                                 F               0         Tower Y translation displacement, node 6, m
         18   -4.603E-01                                 F               0         Tower Z translation displacement, node 6, m
         19    1.374E+01                                 F               0         Tower X translation displacement, node 7, m
         20   -4.507E+00                                 F               0         Tower Y translation displacement, node 7, m
         21   -5.210E-01                                 F               0         Tower Z translation displacement, node 7, m
         22    1.483E+01                                 F               0         Tower X translation displacement, node 8, m
         23   -5.061E+00                                 F               0         Tower Y translation displacement, node 8, m
         24   -5.823E-01                                 F               0         Tower Z translation displacement, node 8, m
         25    1.593E+01                                 F               0         Tower X translation displacement, node 9, m
         26   -5.616E+00                                 F               0         Tower Y translation displacement, node 9, m
         27   -6.438E-01                                 F               0         Tower Z translation displacement, node 9, m
         28    1.703E+01                                 F               0         Tower X translation displacement, node 10, m
         29   -6.173E+00                                 F               0         Tower Y translation displacement, node 10, m
         30   -7.055E-01                                 F               0         Tower Z translation displacement, node 10, m
         31    1.813E+01                                 F               0         Tower X translation displacement, node 11, m
         32   -6.730E+00                                 F               0         Tower Y translation displacement, node 11, m
         33   -7.672E-01                                 F               0         Tower Z translation displacement, node 11, m
         34    9.965E-01,  4.245E-03, -8.380E-02         F               0         Tower X orientation angle, node 1, rad
         35   -6.151E-04,  9.991E-01,  4.329E-02         F               0         Tower Y orientation angle, node 1, rad
         36    8.390E-02, -4.309E-02,  9.955E-01         F               0         Tower Z orientation angle, node 1, rad
         37    9.964E-01,  4.297E-03, -8.500E-02         F               0         Tower X orientation angle, node 2, rad
         38   -5.821E-04,  9.990E-01,  4.368E-02         F               0         Tower Y orientation angle, node 2, rad
         39    8.511E-02, -4.347E-02,  9.954E-01         F               0         Tower Z orientation angle, node 2, rad
         40    9.963E-01,  4.343E-03, -8.604E-02         F               0         Tower X orientation angle, node 3, rad
         41   -5.522E-04,  9.990E-01,  4.403E-02         F               0         Tower Y orientation angle, node 3, rad
         42    8.615E-02, -4.382E-02,  9.953E-01         F               0         Tower Z orientation angle, node 3, rad
         43    9.962E-01,  4.381E-03, -8.690E-02         F               0         Tower X orientation angle, node 4, rad
         44   -5.257E-04,  9.990E-01,  4.434E-02         F               0         Tower Y orientation angle, node 4, rad
         45    8.701E-02, -4.412E-02,  9.952E-01         F               0         Tower Z orientation angle, node 4, rad
         46    9.961E-01,  4.411E-03, -8.758E-02         F               0         Tower X orientation angle, node 5, rad
         47   -5.029E-04,  9.990E-01,  4.460E-02         F               0         Tower Y orientation angle, node 5, rad
         48    8.769E-02, -4.438E-02,  9.952E-01         F               0         Tower Z orientation angle, node 5, rad
         49    9.961E-01,  4.435E-03, -8.811E-02         F               0         Tower X orientation angle, node 6, rad
         50   -4.836E-04,  9.990E-01,  4.482E-02         F               0         Tower Y orientation angle, node 6, rad
         51    8.822E-02, -4.460E-02,  9.951E-01         F               0         Tower Z orientation angle, node 6, rad
         52    9.961E-01,  4.452E-03, -8.848E-02         F               0         Tower X orientation angle, node 7, rad
         53   -4.682E-04,  9.990E-01,  4.499E-02         F               0         Tower Y orientation angle, node 7, rad
         54    8.859E-02, -4.477E-02,  9.951E-01         F               0         Tower Z orientation angle, node 7, rad
         55    9.960E-01,  4.463E-03, -8.873E-02         F               0         Tower X orientation angle, node 8, rad
         56   -4.562E-04,  9.990E-01,  4.513E-02         F               0         Tower Y orientation angle, node 8, rad
         57    8.885E-02, -4.491E-02,  9.950E-01         F               0         Tower Z orientation angle, node 8, rad
         58    9.960E-01,  4.471E-03, -8.890E-02         F               0         Tower X orientation angle, node 9, rad
         59   -4.474E-04,  9.990E-01,  4.523E-02         F               0         Tower Y orientation angle, node 9, rad
         60    8.901E-02, -4.501E-02,  9.950E-01         F               0         Tower Z orientation angle, node 9, rad
         61    9.960E-01,  4.475E-03, -8.898E-02         F               0         Tower X orientation angle, node 10, rad
         62   -4.416E-04,  9.990E-01,  4.529E-02         F               0         Tower Y orientation angle, node 10, rad
         63    8.910E-02, -4.507E-02,  9.950E-01         F               0         Tower Z orientation angle, node 10, rad
         64    9.960E-01,  4.476E-03, -8.902E-02         F               0         Tower X orientation angle, node 11, rad
         65   -4.385E-04,  9.990E-01,  4.533E-02         F               0         Tower Y orientation angle, node 11, rad
         66    8.914E-02, -4.511E-02,  9.950E-01         F               0         Tower Z orientation angle, node 11, rad
         67   -3.794E-03                                 F               0         Tower X translation velocity, node 1, m/s
         68    2.542E-03                                 F               0         Tower Y translation velocity, node 1, m/s
         69    1.122E-03                                 F               0         Tower Z translation velocity, node 1, m/s
         70   -3.655E-03                                 F               0         Tower X translation velocity, node 2, m/s
         71    3.285E-03                                 F               0         Tower Y translation velocity, node 2, m/s
         72    1.142E-03                                 F               0         Tower Z translation velocity, node 2, m/s
         73   -3.522E-03                                 F               0         Tower X translation velocity, node 3, m/s
         74    4.052E-03                                 F               0         Tower Y translation velocity, node 3, m/s
         75    1.165E-03                                 F               0         Tower Z translation velocity, node 3, m/s
         76   -3.395E-03                                 F               0         Tower X translation velocity, node 4, m/s
         77    4.838E-03                                 F               0         Tower Y translation velocity, node 4, m/s
         78    1.188E-03                                 F               0         Tower Z translation velocity, node 4, m/s
         79   -3.276E-03                                 F               0         Tower X translation velocity, node 5, m/s
         80    5.641E-03                                 F               0         Tower Y translation velocity, node 5, m/s
         81    1.214E-03                                 F               0         Tower Z translation velocity, node 5, m/s
         82   -3.163E-03                                 F               0         Tower X translation velocity, node 6, m/s
         83    6.459E-03                                 F               0         Tower Y translation velocity, node 6, m/s
         84    1.240E-03                                 F               0         Tower Z translation velocity, node 6, m/s
         85   -3.056E-03                                 F               0         Tower X translation velocity, node 7, m/s
         86    7.289E-03                                 F               0         Tower Y translation velocity, node 7, m/s
         87    1.268E-03                                 F               0         Tower Z translation velocity, node 7, m/s
         88   -2.955E-03                                 F               0         Tower X translation velocity, node 8, m/s
         89    8.129E-03                                 F               0         Tower Y translation velocity, node 8, m/s
         90    1.297E-03                                 F               0         Tower Z translation velocity, node 8, m/s
         91   -2.859E-03                                 F               0         Tower X translation velocity, node 9, m/s
         92    8.978E-03                                 F               0         Tower Y translation velocity, node 9, m/s
         93    1.327E-03                                 F               0         Tower Z translation velocity, node 9, m/s
         94   -2.768E-03                                 F               0         Tower X translation velocity, node 10, m/s
         95    9.833E-03                                 F               0         Tower Y translation velocity, node 10, m/s
         96    1.357E-03                                 F               0         Tower Z translation velocity, node 10, m/s
         97   -2.679E-03                                 F               0         Tower X translation velocity, node 11, m/s
         98    1.069E-02                                 F               0         Tower Y translation velocity, node 11, m/s
         99    1.388E-03                                 F               0         Tower Z translation velocity, node 11, m/s
        100    1.888E+01                                 F               0         Hub X translation displacement, node 1, m
        101   -7.133E+00                                 F               0         Hub Y translation displacement, node 1, m
        102    1.550E-01                                 F               0         Hub Z translation displacement, node 1, m
        103    9.812E-01,  9.167E-03, -1.925E-01         F               0         Hub X orientation angle, node 1, rad
        104   -1.542E-01, -5.623E-01, -8.124E-01         F               0         Hub Y orientation angle, node 1, rad
        105   -1.157E-01,  8.269E-01, -5.504E-01         F               0         Hub Z orientation angle, node 1, rad
        106    6.944E-01                                 F               0         Hub X rotation velocity, node 1, rad/s
        107    6.494E-03                                 F               0         Hub Y rotation velocity, node 1, rad/s
        108   -1.363E-01                                 F               0         Hub Z rotation velocity, node 1, rad/s
        109    9.854E-01,  2.584E-02, -1.684E-01         F               0         Blade root 1 X orientation angle, node 1, rad
        110   -1.250E-01, -5.618E-01, -8.178E-01         F               0         Blade root 1 Y orientation angle, node 1, rad
        111   -1.157E-01,  8.269E-01, -5.504E-01         F               0         Blade root 1 Z orientation angle, node 1, rad
        112    9.815E-01, -2.042E-02, -1.904E-01         F               0         Blade root 2 X orientation angle, node 1, rad
        113    5.988E-03,  9.971E-01, -7.609E-02         F               0         Blade root 2 Y orientation angle, node 1, rad
        114    1.914E-01,  7.354E-02,  9.788E-01         F               0         Blade root 2 Z orientation angle, node 1, rad
        115    9.756E-01,  2.207E-02, -2.186E-01         F               0         Blade root 3 X orientation angle, node 1, rad
        116    2.063E-01, -4.345E-01,  8.767E-01         F               0         Blade root 3 Y orientation angle, node 1, rad
        117   -7.565E-02, -9.004E-01, -4.284E-01         F               0         Blade root 3 Z orientation angle, node 1, rad
        118    1.766E+01                                 F               0         Blade 1 X translation displacement, node 1, m
        119   -2.552E+00                                 F               0         Blade 1 Y translation displacement, node 1, m
        120   -8.404E+00                                 F               0         Blade 1 Z translation displacement, node 1, m
        121    1.736E+01                                 F               0         Blade 1 X translation displacement, node 2, m
        122   -1.448E+00                                 F               0         Blade 1 Y translation displacement, node 2, m
        123   -1.047E+01                                 F               0         Blade 1 Z translation displacement, node 2, m
        124    1.336E+01                                 F               0         Blade 1 X translation displacement, node 3, m
        125    1.356E+01                                 F               0         Blade 1 Y translation displacement, node 3, m
        126   -3.851E+01                                 F               0         Blade 1 Z translation displacement, node 3, m
        127    1.251E+01                                 F               0         Blade 1 X translation displacement, node 4, m
        128    1.676E+01                                 F               0         Blade 1 Y translation displacement, node 4, m
        129   -4.448E+01                                 F               0         Blade 1 Z translation displacement, node 4, m
        130    1.166E+01                                 F               0         Blade 1 X translation displacement, node 5, m
        131    1.996E+01                                 F               0         Blade 1 Y translation displacement, node 5, m
        132   -5.046E+01                                 F               0         Blade 1 Z translation displacement, node 5, m
        133    1.081E+01                                 F               0         Blade 1 X translation displacement, node 6, m
        134    2.316E+01                                 F               0         Blade 1 Y translation displacement, node 6, m
        135   -5.643E+01                                 F               0         Blade 1 Z translation displacement, node 6, m
        136    9.957E+00                                 F               0         Blade 1 X translation displacement, node 7, m
        137    2.635E+01                                 F               0         Blade 1 Y translation displacement, node 7, m
        138   -6.241E+01                                 F               0         Blade 1 Z translation displacement, node 7, m
        139    9.105E+00                                 F               0         Blade 1 X translation displacement, node 8, m
        140    2.955E+01                                 F               0         Blade 1 Y translation displacement, node 8, m
        141   -6.839E+01                                 F               0         Blade 1 Z translation displacement, node 8, m
        142    8.253E+00                                 F               0         Blade 1 X translation displacement, node 9, m
        143    3.275E+01                                 F               0         Blade 1 Y translation displacement, node 9, m
        144   -7.436E+01                                 F               0         Blade 1 Z translation displacement, node 9, m
        145    7.402E+00                                 F               0         Blade 1 X translation displacement, node 10, m
        146    3.595E+01                                 F               0         Blade 1 Y translation displacement, node 10, m
        147   -8.034E+01                                 F               0         Blade 1 Z translation displacement, node 10, m
        148    6.550E+00                                 F               0         Blade 1 X translation displacement, node 11, m
        149    3.915E+01                                 F               0         Blade 1 Y translation displacement, node 11, m
        150   -8.631E+01                                 F               0         Blade 1 Z translation displacement, node 11, m
        151    5.698E+00                                 F               0         Blade 1 X translation displacement, node 12, m
        152    4.234E+01                                 F               0         Blade 1 Y translation displacement, node 12, m
        153   -9.229E+01                                 F               0         Blade 1 Z translation displacement, node 12, m
        154    4.846E+00                                 F               0         Blade 1 X translation displacement, node 13, m
        155    4.554E+01                                 F               0         Blade 1 Y translation displacement, node 13, m
        156   -9.826E+01                                 F               0         Blade 1 Z translation displacement, node 13, m
        157    3.994E+00                                 F               0         Blade 1 X translation displacement, node 14, m
        158    4.874E+01                                 F               0         Blade 1 Y translation displacement, node 14, m
        159   -1.042E+02                                 F               0         Blade 1 Z translation displacement, node 14, m
        160    3.142E+00                                 F               0         Blade 1 X translation displacement, node 15, m
        161    5.194E+01                                 F               0         Blade 1 Y translation displacement, node 15, m
        162   -1.102E+02                                 F               0         Blade 1 Z translation displacement, node 15, m
        163    2.291E+00                                 F               0         Blade 1 X translation displacement, node 16, m
        164    5.514E+01                                 F               0         Blade 1 Y translation displacement, node 16, m
        165   -1.162E+02                                 F               0         Blade 1 Z translation displacement, node 16, m
        166    1.439E+00                                 F               0         Blade 1 X translation displacement, node 17, m
        167    5.834E+01                                 F               0         Blade 1 Y translation displacement, node 17, m
        168   -1.222E+02                                 F               0         Blade 1 Z translation displacement, node 17, m
        169    5.870E-01                                 F               0         Blade 1 X translation displacement, node 18, m
        170    6.153E+01                                 F               0         Blade 1 Y translation displacement, node 18, m
        171   -1.281E+02                                 F               0         Blade 1 Z translation displacement, node 18, m
        172   -2.650E-01                                 F               0         Blade 1 X translation displacement, node 19, m
        173    6.473E+01                                 F               0         Blade 1 Y translation displacement, node 19, m
        174   -1.341E+02                                 F               0         Blade 1 Z translation displacement, node 19, m
        175   -1.117E+00                                 F               0         Blade 1 X translation displacement, node 20, m
        176    6.793E+01                                 F               0         Blade 1 Y translation displacement, node 20, m
        177   -1.401E+02                                 F               0         Blade 1 Z translation displacement, node 20, m
        178   -1.969E+00                                 F               0         Blade 1 X translation displacement, node 21, m
        179    7.113E+01                                 F               0         Blade 1 Y translation displacement, node 21, m
        180   -1.461E+02                                 F               0         Blade 1 Z translation displacement, node 21, m
        181   -2.821E+00                                 F               0         Blade 1 X translation displacement, node 22, m
        182    7.433E+01                                 F               0         Blade 1 Y translation displacement, node 22, m
        183   -1.520E+02                                 F               0         Blade 1 Z translation displacement, node 22, m
        184   -3.672E+00                                 F               0         Blade 1 X translation displacement, node 23, m
        185    7.752E+01                                 F               0         Blade 1 Y translation displacement, node 23, m
        186   -1.580E+02                                 F               0         Blade 1 Z translation displacement, node 23, m
        187   -4.524E+00                                 F               0         Blade 1 X translation displacement, node 24, m
        188    8.072E+01                                 F               0         Blade 1 Y translation displacement, node 24, m
        189   -1.640E+02                                 F               0         Blade 1 Z translation displacement, node 24, m
        190   -5.376E+00                                 F               0         Blade 1 X translation displacement, node 25, m
        191    8.392E+01                                 F               0         Blade 1 Y translation displacement, node 25, m
        192   -1.700E+02                                 F               0         Blade 1 Z translation displacement, node 25, m
        193   -6.228E+00                                 F               0         Blade 1 X translation displacement, node 26, m
        194    8.712E+01                                 F               0         Blade 1 Y translation displacement, node 26, m
        195   -1.759E+02                                 F               0         Blade 1 Z translation displacement, node 26, m
        196   -7.080E+00                                 F               0         Blade 1 X translation displacement, node 27, m
        197    9.032E+01                                 F               0         Blade 1 Y translation displacement, node 27, m
        198   -1.819E+02                                 F               0         Blade 1 Z translation displacement, node 27, m
        199   -7.802E+00                                 F               0         Blade 1 X translation displacement, node 28, m
        200    9.303E+01                                 F               0         Blade 1 Y translation displacement, node 28, m
        201   -1.870E+02                                 F               0         Blade 1 Z translation displacement, node 28, m
        202    9.340E-01,  2.792E-01,  2.231E-01         F               0         Blade 1 X orientation angle, node 1, rad
        203    3.381E-01, -4.882E-01, -8.046E-01         F               0         Blade 1 Y orientation angle, node 1, rad
        204   -1.157E-01,  8.269E-01, -5.504E-01         F               0         Blade 1 Z orientation angle, node 1, rad
        205    9.340E-01,  2.792E-01,  2.231E-01         F               0         Blade 1 X orientation angle, node 2, rad
        206    3.381E-01, -4.882E-01, -8.046E-01         F               0         Blade 1 Y orientation angle, node 2, rad
        207   -1.157E-01,  8.269E-01, -5.504E-01         F               0         Blade 1 Z orientation angle, node 2, rad
        208    9.875E-01,  1.555E-01,  2.604E-02         F               0         Blade 1 X orientation angle, node 3, rad
        209    1.071E-01, -5.405E-01, -8.345E-01         F               0         Blade 1 Y orientation angle, node 3, rad
        210   -1.157E-01,  8.269E-01, -5.504E-01         F               0         Blade 1 Z orientation angle, node 3, rad
        211    9.911E-01,  1.326E-01, -9.223E-03         F               0         Blade 1 X orientation angle, node 4, rad
        212    6.533E-02, -5.465E-01, -8.349E-01         F               0         Blade 1 Y orientation angle, node 4, rad
        213   -1.157E-01,  8.269E-01, -5.504E-01         F               0         Blade 1 Z orientation angle, node 4, rad
        214    9.928E-01,  1.144E-01, -3.690E-02         F               0         Blade 1 X orientation angle, node 5, rad
        215    3.244E-02, -5.506E-01, -8.341E-01         F               0         Blade 1 Y orientation angle, node 5, rad
        216   -1.157E-01,  8.269E-01, -5.504E-01         F               0         Blade 1 Z orientation angle, node 5, rad
        217    9.933E-01,  9.973E-02, -5.901E-02         F               0         Blade 1 X orientation angle, node 6, rad
        218    6.090E-03, -5.535E-01, -8.328E-01         F               0         Blade 1 Y orientation angle, node 6, rad
        219   -1.157E-01,  8.269E-01, -5.504E-01         F               0         Blade 1 Z orientation angle, node 6, rad
        220    9.932E-01,  8.763E-02, -7.717E-02         F               0         Blade 1 X orientation angle, node 7, rad
        221   -1.558E-02, -5.555E-01, -8.314E-01         F               0         Blade 1 Y orientation angle, node 7, rad
        222   -1.157E-01,  8.269E-01, -5.504E-01         F               0         Blade 1 Z orientation angle, node 7, rad
        223    9.927E-01,  7.753E-02, -9.224E-02         F               0         Blade 1 X orientation angle, node 8, rad
        224   -3.360E-02, -5.570E-01, -8.298E-01         F               0         Blade 1 Y orientation angle, node 8, rad
        225   -1.157E-01,  8.269E-01, -5.504E-01         F               0         Blade 1 Z orientation angle, node 8, rad
        226    9.921E-01,  6.897E-02, -1.050E-01         F               0         Blade 1 X orientation angle, node 9, rad
        227   -4.885E-02, -5.581E-01, -8.283E-01         F               0         Blade 1 Y orientation angle, node 9, rad