
Linearized model: Predictions were generated on 11-Jan-2024 at 12:32:35 using OpenFAST, compiled as a 64-bit application using single precision at commit v3.5.1
 linked with  NWTC Subroutine Library; ElastoDyn; InflowWind; AeroDyn; ServoDyn; HydroDyn; MoorDyn (v2.0.0, 2023-09-18)

Description from the FAST input file: CCT-9 Campign 4 model. Input files to be run with OpenFAST 3.5.0. GitHub branch from Lu Wang (https://github.com/luwang00/openfast/tree/dev) compiled on March 7, 2023.

Simulation information:
   Simulation time:                   502.2250 s
   Rotor Speed:                         0.7076 rad/s
   Azimuth:                             5.1146 rad
   Wind Speed:                          8.0000 m/s
   Number of continuous states:         0
   Number of discrete states:           0
   Number of constraint states:         0
   Number of inputs:                  303
   Number of outputs:                   1
   Jacobians included in this file?    No

Order of inputs:
     Column   Operating Point                     Rotating Frame? Derivative Order Description
   ---------- ---------------                     --------------- ---------------- -----------
          1   -1.080E+01                                 F               0         X-component position of node 1 (hub), m
          2    0.000E+00                                 F               0         Y-component position of node 1 (hub), m
          3    1.497E+02                                 F               0         Z-component position of node 1 (hub), m
          4    8.487E+00                                 F               0         X-component position of node 2 (blade 1, node 1), m
          5   -2.124E+00                                 F               0         Y-component position of node 2 (blade 1, node 1), m
          6    1.523E+02                                 F               0         Z-component position of node 2 (blade 1, node 1), m
          7    8.587E+00                                 F               0         X-component position of node 3 (blade 1, node 2), m
          8   -9.201E-01                                 F               0         Y-component position of node 3 (blade 1, node 2), m
          9    1.528E+02                                 F               0         Z-component position of node 3 (blade 1, node 2), m
         10    9.950E+00                                 F               0         X-component position of node 4 (blade 1, node 3), m
         11    1.545E+01                                 F               0         Y-component position of node 4 (blade 1, node 3), m
         12    1.605E+02                                 F               0         Z-component position of node 4 (blade 1, node 3), m
         13    1.024E+01                                 F               0         X-component position of node 5 (blade 1, node 4), m
         14    1.894E+01                                 F               0         Y-component position of node 5 (blade 1, node 4), m
         15    1.622E+02                                 F               0         Z-component position of node 5 (blade 1, node 4), m
         16    1.053E+01                                 F               0         X-component position of node 6 (blade 1, node 5), m
         17    2.243E+01                                 F               0         Y-component position of node 6 (blade 1, node 5), m
         18    1.638E+02                                 F               0         Z-component position of node 6 (blade 1, node 5), m
         19    1.082E+01                                 F               0         X-component position of node 7 (blade 1, node 6), m
         20    2.592E+01                                 F               0         Y-component position of node 7 (blade 1, node 6), m
         21    1.655E+02                                 F               0         Z-component position of node 7 (blade 1, node 6), m
         22    1.111E+01                                 F               0         X-component position of node 8 (blade 1, node 7), m
         23    2.940E+01                                 F               0         Y-component position of node 8 (blade 1, node 7), m
         24    1.671E+02                                 F               0         Z-component position of node 8 (blade 1, node 7), m
         25    1.140E+01                                 F               0         X-component position of node 9 (blade 1, node 8), m
         26    3.289E+01                                 F               0         Y-component position of node 9 (blade 1, node 8), m
         27    1.688E+02                                 F               0         Z-component position of node 9 (blade 1, node 8), m
         28    1.169E+01                                 F               0         X-component position of node 10 (blade 1, node 9), m
         29    3.638E+01                                 F               0         Y-component position of node 10 (blade 1, node 9), m
         30    1.704E+02                                 F               0         Z-component position of node 10 (blade 1, node 9), m
         31    1.198E+01                                 F               0         X-component position of node 11 (blade 1, node 10), m
         32    3.987E+01                                 F               0         Y-component position of node 11 (blade 1, node 10), m
         33    1.721E+02                                 F               0         Z-component position of node 11 (blade 1, node 10), m
         34    1.227E+01                                 F               0         X-component position of node 12 (blade 1, node 11), m
         35    4.336E+01                                 F               0         Y-component position of node 12 (blade 1, node 11), m
         36    1.737E+02                                 F               0         Z-component position of node 12 (blade 1, node 11), m
         37    1.256E+01                                 F               0         X-component position of node 13 (blade 1, node 12), m
         38    4.685E+01                                 F               0         Y-component position of node 13 (blade 1, node 12), m
         39    1.754E+02                                 F               0         Z-component position of node 13 (blade 1, node 12), m
         40    1.285E+01                                 F               0         X-component position of node 14 (blade 1, node 13), m
         41    5.033E+01                                 F               0         Y-component position of node 14 (blade 1, node 13), m
         42    1.770E+02                                 F               0         Z-component position of node 14 (blade 1, node 13), m
         43    1.314E+01                                 F               0         X-component position of node 15 (blade 1, node 14), m
         44    5.382E+01                                 F               0         Y-component position of node 15 (blade 1, node 14), m
         45    1.786E+02                                 F               0         Z-component position of node 15 (blade 1, node 14), m
         46    1.343E+01                                 F               0         X-component position of node 16 (blade 1, node 15), m
         47    5.731E+01                                 F               0         Y-component position of node 16 (blade 1, node 15), m
         48    1.803E+02                                 F               0         Z-component position of node 16 (blade 1, node 15), m
         49    1.372E+01                                 F               0         X-component position of node 17 (blade 1, node 16), m
         50    6.080E+01                                 F               0         Y-component position of node 17 (blade 1, node 16), m
         51    1.819E+02                                 F               0         Z-component position of node 17 (blade 1, node 16), m
         52    1.401E+01                                 F               0         X-component position of node 18 (blade 1, node 17), m
         53    6.429E+01                                 F               0         Y-component position of node 18 (blade 1, node 17), m
         54    1.836E+02                                 F               0         Z-component position of node 18 (blade 1, node 17), m
         55    1.430E+01                                 F               0         X-component position of node 19 (blade 1, node 18), m
         56    6.778E+01                                 F               0         Y-component position of node 19 (blade 1, node 18), m
         57    1.852E+02                                 F               0         Z-component position of node 19 (blade 1, node 18), m
         58    1.459E+01                                 F               0         X-component position of node 20 (blade 1, node 19), m
         59    7.126E+01                                 F               0         Y-component position of node 20 (blade 1, node 19), m
         60    1.869E+02                                 F               0         Z-component position of node 20 (blade 1, node 19), m
         61    1.488E+01                                 F               0         X-component position of node 21 (blade 1, node 20), m
         62    7.475E+01                                 F               0         Y-component position of node 21 (blade 1, node 20), m
         63    1.885E+02                                 F               0         Z-component position of node 21 (blade 1, node 20), m
         64    1.517E+01                                 F               0         X-component position of node 22 (blade 1, node 21), m
         65    7.824E+01                                 F               0         Y-component position of node 22 (blade 1, node 21), m
         66    1.902E+02                                 F               0         Z-component position of node 22 (blade 1, node 21), m
         67    1.546E+01                                 F               0         X-component position of node 23 (blade 1, node 22), m
         68    8.173E+01                                 F               0         Y-component position of node 23 (blade 1, node 22), m
         69    1.918E+02                                 F               0         Z-component position of node 23 (blade 1, node 22), m
         70    1.575E+01                                 F               0         X-component position of node 24 (blade 1, node 23), m
         71    8.522E+01                                 F               0         Y-component position of node 24 (blade 1, node 23), m
         72    1.934E+02                                 F               0         Z-component position of node 24 (blade 1, node 23), m
         73    1.604E+01                                 F               0         X-component position of node 25 (blade 1, node 24), m
         74    8.871E+01                                 F               0         Y-component position of node 25 (blade 1, node 24), m
         75    1.951E+02                                 F               0         Z-component position of node 25 (blade 1, node 24), m
         76    1.633E+01                                 F               0         X-component position of node 26 (blade 1, node 25), m
         77    9.219E+01                                 F               0         Y-component position of node 26 (blade 1, node 25), m
         78    1.967E+02                                 F               0         Z-component position of node 26 (blade 1, node 25), m
         79    1.663E+01                                 F               0         X-component position of node 27 (blade 1, node 26), m
         80    9.568E+01                                 F               0         Y-component position of node 27 (blade 1, node 26), m
         81    1.984E+02                                 F               0         Z-component position of node 27 (blade 1, node 26), m
         82    1.692E+01                                 F               0         X-component position of node 28 (blade 1, node 27), m
         83    9.917E+01                                 F               0         Y-component position of node 28 (blade 1, node 27), m
         84    2.000E+02                                 F               0         Z-component position of node 28 (blade 1, node 27), m
         85    1.716E+01                                 F               0         X-component position of node 29 (blade 1, node 28), m
         86    1.021E+02                                 F               0         Y-component position of node 29 (blade 1, node 28), m
         87    2.014E+02                                 F               0         Z-component position of node 29 (blade 1, node 28), m
         88    8.716E+00                                 F               0         X-component position of node 30 (blade 2, node 1), m
         89   -1.169E+01                                 F               0         Y-component position of node 30 (blade 2, node 1), m
         90    1.530E+02                                 F               0         Z-component position of node 30 (blade 2, node 1), m
         91    8.871E+00                                 F               0         X-component position of node 31 (blade 2, node 2), m
         92   -1.279E+01                                 F               0         Y-component position of node 31 (blade 2, node 2), m
         93    1.537E+02                                 F               0         Z-component position of node 31 (blade 2, node 2), m
         94    1.098E+01                                 F               0         X-component position of node 32 (blade 2, node 3), m
         95   -2.777E+01                                 F               0         Y-component position of node 32 (blade 2, node 3), m
         96    1.637E+02                                 F               0         Z-component position of node 32 (blade 2, node 3), m
         97    1.143E+01                                 F               0         X-component position of node 33 (blade 2, node 4), m
         98   -3.096E+01                                 F               0         Y-component position of node 33 (blade 2, node 4), m
         99    1.659E+02                                 F               0         Z-component position of node 33 (blade 2, node 4), m
        100    1.188E+01                                 F               0         X-component position of node 34 (blade 2, node 5), m
        101   -3.415E+01                                 F               0         Y-component position of node 34 (blade 2, node 5), m
        102    1.680E+02                                 F               0         Z-component position of node 34 (blade 2, node 5), m
        103    1.233E+01                                 F               0         X-component position of node 35 (blade 2, node 6), m
        104   -3.734E+01                                 F               0         Y-component position of node 35 (blade 2, node 6), m
        105    1.702E+02                                 F               0         Z-component position of node 35 (blade 2, node 6), m
        106    1.278E+01                                 F               0         X-component position of node 36 (blade 2, node 7), m
        107   -4.053E+01                                 F               0         Y-component position of node 36 (blade 2, node 7), m
        108    1.723E+02                                 F               0         Z-component position of node 36 (blade 2, node 7), m
        109    1.323E+01                                 F               0         X-component position of node 37 (blade 2, node 8), m
        110   -4.372E+01                                 F               0         Y-component position of node 37 (blade 2, node 8), m
        111    1.744E+02                                 F               0         Z-component position of node 37 (blade 2, node 8), m
        112    1.368E+01                                 F               0         X-component position of node 38 (blade 2, node 9), m
        113   -4.691E+01                                 F               0         Y-component position of node 38 (blade 2, node 9), m
        114    1.766E+02                                 F               0         Z-component position of node 38 (blade 2, node 9), m
        115    1.413E+01                                 F               0         X-component position of node 39 (blade 2, node 10), m
        116   -5.010E+01                                 F               0         Y-component position of node 39 (blade 2, node 10), m
        117    1.787E+02                                 F               0         Z-component position of node 39 (blade 2, node 10), m
        118    1.458E+01                                 F               0         X-component position of node 40 (blade 2, node 11), m
        119   -5.329E+01                                 F               0         Y-component position of node 40 (blade 2, node 11), m
        120    1.809E+02                                 F               0         Z-component position of node 40 (blade 2, node 11), m
        121    1.503E+01                                 F               0         X-component position of node 41 (blade 2, node 12), m
        122   -5.648E+01                                 F               0         Y-component position of node 41 (blade 2, node 12), m
        123    1.830E+02                                 F               0         Z-component position of node 41 (blade 2, node 12), m
        124    1.548E+01                                 F               0         X-component position of node 42 (blade 2, node 13), m
        125   -5.967E+01                                 F               0         Y-component position of node 42 (blade 2, node 13), m
        126    1.851E+02                                 F               0         Z-component position of node 42 (blade 2, node 13), m
        127    1.593E+01                                 F               0         X-component position of node 43 (blade 2, node 14), m
        128   -6.286E+01                                 F               0         Y-component position of node 43 (blade 2, node 14), m
        129    1.873E+02                                 F               0         Z-component position of node 43 (blade 2, node 14), m
        130    1.638E+01                                 F               0         X-component position of node 44 (blade 2, node 15), m
        131   -6.605E+01                                 F               0         Y-component position of node 44 (blade 2, node 15), m
        132    1.894E+02                                 F               0         Z-component position of node 44 (blade 2, node 15), m
        133    1.683E+01                                 F               0         X-component position of node 45 (blade 2, node 16), m
        134   -6.924E+01                                 F               0         Y-component position of node 45 (blade 2, node 16), m
        135    1.916E+02                                 F               0         Z-component position of node 45 (blade 2, node 16), m
        136    1.728E+01                                 F               0         X-component position of node 46 (blade 2, node 17), m
        137   -7.243E+01                                 F               0         Y-component position of node 46 (blade 2, node 17), m
        138    1.937E+02                                 F               0         Z-component position of node 46 (blade 2, node 17), m
        139    1.773E+01                                 F               0         X-component position of node 47 (blade 2, node 18), m
        140   -7.563E+01                                 F               0         Y-component position of node 47 (blade 2, node 18), m
        141    1.958E+02                                 F               0         Z-component position of node 47 (blade 2, node 18), m
        142    1.818E+01                                 F               0         X-component position of node 48 (blade 2, node 19), m
        143   -7.882E+01                                 F               0         Y-component position of node 48 (blade 2, node 19), m
        144    1.980E+02                                 F               0         Z-component position of node 48 (blade 2, node 19), m
        145    1.862E+01                                 F               0         X-component position of node 49 (blade 2, node 20), m
        146   -8.201E+01                                 F               0         Y-component position of node 49 (blade 2, node 20), m
        147    2.001E+02                                 F               0         Z-component position of node 49 (blade 2, node 20), m
        148    1.907E+01                                 F               0         X-component position of node 50 (blade 2, node 21), m
        149   -8.520E+01                                 F               0         Y-component position of node 50 (blade 2, node 21), m
        150    2.023E+02                                 F               0         Z-component position of node 50 (blade 2, node 21), m
        151    1.952E+01                                 F               0         X-component position of node 51 (blade 2, node 22), m
        152   -8.839E+01                                 F               0         Y-component position of node 51 (blade 2, node 22), m
        153    2.044E+02                                 F               0         Z-component position of node 51 (blade 2, node 22), m
        154    1.997E+01                                 F               0         X-component position of node 52 (blade 2, node 23), m
        155   -9.158E+01                                 F               0         Y-component position of node 52 (blade 2, node 23), m
        156    2.065E+02                                 F               0         Z-component position of node 52 (blade 2, node 23), m
        157    2.042E+01                                 F               0         X-component position of node 53 (blade 2, node 24), m
        158   -9.477E+01                                 F               0         Y-component position of node 53 (blade 2, node 24), m
        159    2.087E+02                                 F               0         Z-component position of node 53 (blade 2, node 24), m
        160    2.087E+01                                 F               0         X-component position of node 54 (blade 2, node 25), m
        161   -9.796E+01                                 F               0         Y-component position of node 54 (blade 2, node 25), m
        162    2.108E+02                                 F               0         Z-component position of node 54 (blade 2, node 25), m
        163    2.132E+01                                 F               0         X-component position of node 55 (blade 2, node 26), m
        164   -1.012E+02                                 F               0         Y-component position of node 55 (blade 2, node 26), m
        165    2.129E+02                                 F               0         Z-component position of node 55 (blade 2, node 26), m
        166    2.177E+01                                 F               0         X-component position of node 56 (blade 2, node 27), m
        167   -1.043E+02                                 F               0         Y-component position of node 56 (blade 2, node 27), m
        168    2.151E+02                                 F               0         Z-component position of node 56 (blade 2, node 27), m
        169    2.215E+01                                 F               0         X-component position of node 57 (blade 2, node 28), m
        170   -1.070E+02                                 F               0         Y-component position of node 57 (blade 2, node 28), m
        171    2.169E+02                                 F               0         Z-component position of node 57 (blade 2, node 28), m
        172    7.012E+00                                 F               0         X-component position of node 58 (blade 3, node 1), m
        173   -7.547E+00                                 F               0         Y-component position of node 58 (blade 3, node 1), m
        174    1.445E+02                                 F               0         Z-component position of node 58 (blade 3, node 1), m
        175    6.756E+00                                 F               0         X-component position of node 59 (blade 3, node 2), m
        176   -7.650E+00                                 F               0         Y-component position of node 59 (blade 3, node 2), m
        177    1.432E+02                                 F               0         Z-component position of node 59 (blade 3, node 2), m
        178    3.284E+00                                 F               0         X-component position of node 60 (blade 3, node 3), m
        179   -9.047E+00                                 F               0         Y-component position of node 60 (blade 3, node 3), m
        180    1.254E+02                                 F               0         Z-component position of node 60 (blade 3, node 3), m
        181    2.544E+00                                 F               0         X-component position of node 61 (blade 3, node 4), m
        182   -9.345E+00                                 F               0         Y-component position of node 61 (blade 3, node 4), m
        183    1.216E+02                                 F               0         Z-component position of node 61 (blade 3, node 4), m
        184    1.804E+00                                 F               0         X-component position of node 62 (blade 3, node 5), m
        185   -9.642E+00                                 F               0         Y-component position of node 62 (blade 3, node 5), m
        186    1.178E+02                                 F               0         Z-component position of node 62 (blade 3, node 5), m
        187    1.064E+00                                 F               0         X-component position of node 63 (blade 3, node 6), m
        188   -9.940E+00                                 F               0         Y-component position of node 63 (blade 3, node 6), m
        189    1.141E+02                                 F               0         Z-component position of node 63 (blade 3, node 6), m
        190    3.245E-01                                 F               0         X-component position of node 64 (blade 3, node 7), m
        191   -1.024E+01                                 F               0         Y-component position of node 64 (blade 3, node 7), m
        192    1.103E+02                                 F               0         Z-component position of node 64 (blade 3, node 7), m
        193   -4.155E-01                                 F               0         X-component position of node 65 (blade 3, node 8), m
        194   -1.054E+01                                 F               0         Y-component position of node 65 (blade 3, node 8), m
        195    1.065E+02                                 F               0         Z-component position of node 65 (blade 3, node 8), m
        196   -1.155E+00                                 F               0         X-component position of node 66 (blade 3, node 9), m
        197   -1.083E+01                                 F               0         Y-component position of node 66 (blade 3, node 9), m
        198    1.027E+02                                 F               0         Z-component position of node 66 (blade 3, node 9), m
        199   -1.895E+00                                 F               0         X-component position of node 67 (blade 3, node 10), m
        200   -1.113E+01                                 F               0         Y-component position of node 67 (blade 3, node 10), m
        201    9.892E+01                                 F               0         Z-component position of node 67 (blade 3, node 10), m
        202   -2.635E+00                                 F               0         X-component position of node 68 (blade 3, node 11), m
        203   -1.143E+01                                 F               0         Y-component position of node 68 (blade 3, node 11), m
        204    9.513E+01                                 F               0         Z-component position of node 68 (blade 3, node 11), m
        205   -3.375E+00                                 F               0         X-component position of node 69 (blade 3, node 12), m
        206   -1.173E+01                                 F               0         Y-component position of node 69 (blade 3, node 12), m
        207    9.135E+01                                 F               0         Z-component position of node 69 (blade 3, node 12), m
        208   -4.115E+00                                 F               0         X-component position of node 70 (blade 3, node 13), m
        209   -1.202E+01                                 F               0         Y-component position of node 70 (blade 3, node 13), m
        210    8.756E+01                                 F               0         Z-component position of node 70 (blade 3, node 13), m
        211   -4.855E+00                                 F               0         X-component position of node 71 (blade 3, node 14), m