
Linearized model: Predictions were generated on 11-Jan-2024 at 12:32:35 using OpenFAST, compiled as a 64-bit application using single precision at commit v3.5.1
 linked with  NWTC Subroutine Library; ElastoDyn; InflowWind; AeroDyn; ServoDyn; HydroDyn; MoorDyn (v2.0.0, 2023-09-18)

Description from the FAST input file: CCT-9 Campign 4 model. Input files to be run with OpenFAST 3.5.0. GitHub branch from Lu Wang (https://github.com/luwang00/openfast/tree/dev) compiled on March 7, 2023.

Simulation information:
   Simulation time:                   505.4500 s
   Rotor Speed:                         0.7072 rad/s
   Azimuth:                             1.1127 rad
   Wind Speed:                          8.0000 m/s
   Number of continuous states:         0
   Number of discrete states:           0
   Number of constraint states:         0
   Number of inputs:                   54
   Number of outputs:                   0
   Jacobians included in this file?    No

Order of inputs:
     Column   Operating Point                     Rotating Frame? Derivative Order Description
   ---------- ---------------                     --------------- ---------------- -----------
          1    4.466E+00                                 F               0         CoupledKinematics X translation displacement, node 1, m
          2    3.468E-01                                 F               0         CoupledKinematics Y translation displacement, node 1, m
          3   -4.732E+00                                 F               0         CoupledKinematics Z translation displacement, node 1, m
          4    4.405E+00                                 F               0         CoupledKinematics X translation displacement, node 2, m
          5    2.476E-01                                 F               0         CoupledKinematics Y translation displacement, node 2, m
          6   -2.221E-01                                 F               0         CoupledKinematics Z translation displacement, node 2, m
          7    4.749E+00                                 F               0         CoupledKinematics X translation displacement, node 3, m
          8   -7.968E-02                                 F               0         CoupledKinematics Y translation displacement, node 3, m
          9    4.971E+00                                 F               0         CoupledKinematics Z translation displacement, node 3, m
         10    9.965E-01,  4.241E-03, -8.383E-02         F               0         CoupledKinematics X orientation angle, node 1, rad
         11   -6.171E-04,  9.991E-01,  4.321E-02         F               0         CoupledKinematics Y orientation angle, node 1, rad
         12    8.393E-02, -4.301E-02,  9.955E-01         F               0         CoupledKinematics Z orientation angle, node 1, rad
         13    9.965E-01,  4.241E-03, -8.383E-02         F               0         CoupledKinematics X orientation angle, node 2, rad
         14   -6.171E-04,  9.991E-01,  4.321E-02         F               0         CoupledKinematics Y orientation angle, node 2, rad
         15    8.393E-02, -4.301E-02,  9.955E-01         F               0         CoupledKinematics Z orientation angle, node 2, rad
         16    9.965E-01,  4.241E-03, -8.383E-02         F               0         CoupledKinematics X orientation angle, node 3, rad
         17   -6.171E-04,  9.991E-01,  4.321E-02         F               0         CoupledKinematics Y orientation angle, node 3, rad
         18    8.393E-02, -4.301E-02,  9.955E-01         F               0         CoupledKinematics Z orientation angle, node 3, rad
         19   -6.074E-03                                 F               0         CoupledKinematics X translation velocity, node 1, m/s
         20    7.540E-04                                 F               0         CoupledKinematics Y translation velocity, node 1, m/s
         21    3.137E-03                                 F               0         CoupledKinematics Z translation velocity, node 1, m/s
         22   -4.665E-03                                 F               0         CoupledKinematics X translation velocity, node 2, m/s
         23    6.678E-04                                 F               0         CoupledKinematics Y translation velocity, node 2, m/s
         24    5.342E-03                                 F               0         CoupledKinematics Z translation velocity, node 2, m/s
         25   -5.311E-03                                 F               0         CoupledKinematics X translation velocity, node 3, m/s
         26    1.731E-03                                 F               0         CoupledKinematics Y translation velocity, node 3, m/s
         27    4.986E-03                                 F               0         CoupledKinematics Z translation velocity, node 3, m/s
         28    2.137E-05                                 F               0         CoupledKinematics X rotation velocity, node 1, rad/s
         29    8.518E-06                                 F               0         CoupledKinematics Y rotation velocity, node 1, rad/s
         30   -1.332E-05                                 F               0         CoupledKinematics Z rotation velocity, node 1, rad/s
         31    2.137E-05                                 F               0         CoupledKinematics X rotation velocity, node 2, rad/s
         32    8.518E-06                                 F               0         CoupledKinematics Y rotation velocity, node 2, rad/s
         33   -1.332E-05                                 F               0         CoupledKinematics Z rotation velocity, node 2, rad/s
         34    2.137E-05                                 F               0         CoupledKinematics X rotation velocity, node 3, rad/s
         35    8.518E-06                                 F               0         CoupledKinematics Y rotation velocity, node 3, rad/s
         36   -1.332E-05                                 F               0         CoupledKinematics Z rotation velocity, node 3, rad/s
         37   -4.101E-04                                 F               0         CoupledKinematics X translation acceleration, node 1, m/s^2
         38    3.330E-05                                 F               0         CoupledKinematics Y translation acceleration, node 1, m/s^2
         39   -1.414E-03                                 F               0         CoupledKinematics Z translation acceleration, node 1, m/s^2
         40    1.030E-04                                 F               0         CoupledKinematics X translation acceleration, node 2, m/s^2
         41   -8.235E-05                                 F               0         CoupledKinematics Y translation acceleration, node 2, m/s^2
         42    1.309E-03                                 F               0         CoupledKinematics Z translation acceleration, node 2, m/s^2
         43   -1.457E-04                                 F               0         CoupledKinematics X translation acceleration, node 3, m/s^2
         44    2.148E-04                                 F               0         CoupledKinematics Y translation acceleration, node 3, m/s^2
         45    5.295E-05                                 F               0         CoupledKinematics Z translation acceleration, node 3, m/s^2
         46    2.646E-05                                 F               0         CoupledKinematics X rotation acceleration, node 1, rad/s^2
         47    1.304E-06                                 F               0         CoupledKinematics Y rotation acceleration, node 1, rad/s^2
         48   -4.930E-06                                 F               0         CoupledKinematics Z rotation acceleration, node 1, rad/s^2
         49    2.646E-05                                 F               0         CoupledKinematics X rotation acceleration, node 2, rad/s^2
         50    1.304E-06                                 F               0         CoupledKinematics Y rotation acceleration, node 2, rad/s^2
         51   -4.930E-06                                 F               0         CoupledKinematics Z rotation acceleration, node 2, rad/s^2
         52    2.646E-05                                 F               0         CoupledKinematics X rotation acceleration, node 3, rad/s^2
         53    1.304E-06                                 F               0         CoupledKinematics Y rotation acceleration, node 3, rad/s^2
         54   -4.930E-06                                 F               0         CoupledKinematics Z rotation acceleration, node 3, rad/s^2


Linearized state matrices:

