
Linearized model: Predictions were generated on 11-Jan-2024 at 12:32:35 using OpenFAST, compiled as a 64-bit application using single precision at commit v3.5.1
 linked with  NWTC Subroutine Library; ElastoDyn; InflowWind; AeroDyn; ServoDyn; HydroDyn; MoorDyn (v2.0.0, 2023-09-18)

Description from the FAST input file: CCT-9 Campign 4 model. Input files to be run with OpenFAST 3.5.0. GitHub branch from Lu Wang (https://github.com/luwang00/openfast/tree/dev) compiled on March 7, 2023.

Simulation information:
   Simulation time:                   504.4500 s
   Rotor Speed:                         0.7073 rad/s
   Azimuth:                             0.4055 rad
   Wind Speed:                          8.0000 m/s
   Number of continuous states:        22
   Number of discrete states:           0
   Number of constraint states:         0
   Number of inputs:                 4033
   Number of outputs:                  55
   Jacobians included in this file?    No

Order of continuous states:
   Row/Column Operating Point                     Rotating Frame? Derivative Order Description
   ---------- ---------------                     --------------- ---------------- -----------
          1    5.750E+00                                 F               2         ED Platform horizontal surge translation DOF (internal DOF index = DOF_Sg), m
          2   -4.462E-01                                 F               2         ED Platform horizontal sway translation DOF (internal DOF index = DOF_Sw), m
          3   -7.652E-02                                 F               2         ED Platform vertical heave translation DOF (internal DOF index = DOF_Hv), m
          4    4.329E-02                                 F               2         ED Platform roll tilt rotation DOF (internal DOF index = DOF_R), rad
          5    8.425E-02                                 F               2         ED Platform pitch tilt rotation DOF (internal DOF index = DOF_P), rad
          6    2.451E-03                                 F               2         ED Platform yaw rotation DOF (internal DOF index = DOF_Y), rad
          7    4.626E-01                                 F               2         ED 1st tower fore-aft bending mode DOF (internal DOF index = DOF_TFA1), m
          8    1.664E-01                                 F               2         ED 1st tower side-to-side bending mode DOF (internal DOF index = DOF_TSS1), m
          9    1.458E-03                                 F               2         ED 2nd tower fore-aft bending mode DOF (internal DOF index = DOF_TFA2), m
         10    7.475E-05                                 F               2         ED 2nd tower side-to-side bending mode DOF (internal DOF index = DOF_TSS2), m
         11    5.118E+00                                 F               2         ED Variable speed generator DOF (internal DOF index = DOF_GeAz), rad
         12   -5.040E-03                                 F               2         ED First time derivative of Platform horizontal surge translation DOF (internal DOF index = DOF_Sg), m/s
         13    9.701E-04                                 F               2         ED First time derivative of Platform horizontal sway translation DOF (internal DOF index = DOF_Sw), m/s
         14    4.290E-03                                 F               2         ED First time derivative of Platform vertical heave translation DOF (internal DOF index = DOF_Hv), m/s
         15   -3.604E-07                                 F               2         ED First time derivative of Platform roll tilt rotation DOF (internal DOF index = DOF_R), rad/s
         16    9.793E-06                                 F               2         ED First time derivative of Platform pitch tilt rotation DOF (internal DOF index = DOF_P), rad/s
         17   -8.197E-06                                 F               2         ED First time derivative of Platform yaw rotation DOF (internal DOF index = DOF_Y), rad/s
         18   -2.764E-04                                 F               2         ED First time derivative of 1st tower fore-aft bending mode DOF (internal DOF index = DOF_TFA1), m/s
         19    3.128E-04                                 F               2         ED First time derivative of 1st tower side-to-side bending mode DOF (internal DOF index = DOF_TSS1), m/s
         20    4.789E-07                                 F               2         ED First time derivative of 2nd tower fore-aft bending mode DOF (internal DOF index = DOF_TFA2), m/s
         21   -2.881E-07                                 F               2         ED First time derivative of 2nd tower side-to-side bending mode DOF (internal DOF index = DOF_TSS2), m/s
         22    7.073E-01                                 F               2         ED First time derivative of Variable speed generator DOF (internal DOF index = DOF_GeAz), rad/s

Order of continuous state derivatives:
   Row/Column Operating Point                     Rotating Frame? Derivative Order Description
   ---------- ---------------                     --------------- ---------------- -----------
          1   -5.040E-03                                 F               2         First time derivative of ED Platform horizontal surge translation DOF (internal DOF index = DOF_Sg), m/s
          2    9.701E-04                                 F               2         First time derivative of ED Platform horizontal sway translation DOF (internal DOF index = DOF_Sw), m/s
          3    4.290E-03                                 F               2         First time derivative of ED Platform vertical heave translation DOF (internal DOF index = DOF_Hv), m/s
          4   -3.604E-07                                 F               2         First time derivative of ED Platform roll tilt rotation DOF (internal DOF index = DOF_R), rad/s
          5    9.793E-06                                 F               2         First time derivative of ED Platform pitch tilt rotation DOF (internal DOF index = DOF_P), rad/s
          6   -8.197E-06                                 F               2         First time derivative of ED Platform yaw rotation DOF (internal DOF index = DOF_Y), rad/s
          7   -2.764E-04                                 F               2         First time derivative of ED 1st tower fore-aft bending mode DOF (internal DOF index = DOF_TFA1), m/s
          8    3.128E-04                                 F               2         First time derivative of ED 1st tower side-to-side bending mode DOF (internal DOF index = DOF_TSS1), m/s
          9    4.789E-07                                 F               2         First time derivative of ED 2nd tower fore-aft bending mode DOF (internal DOF index = DOF_TFA2), m/s
         10   -2.881E-07                                 F               2         First time derivative of ED 2nd tower side-to-side bending mode DOF (internal DOF index = DOF_TSS2), m/s
         11    7.073E-01                                 F               2         First time derivative of ED Variable speed generator DOF (internal DOF index = DOF_GeAz), rad/s
         12   -2.068E-04                                 F               2         First time derivative of ED First time derivative of Platform horizontal surge translation DOF (internal DOF index = DOF_Sg), m/s/s
         13   -1.663E-04                                 F               2         First time derivative of ED First time derivative of Platform horizontal sway translation DOF (internal DOF index = DOF_Sw), m/s/s
         14    3.696E-04                                 F               2         First time derivative of ED First time derivative of Platform vertical heave translation DOF (internal DOF index = DOF_Hv), m/s/s
         15    1.757E-05                                 F               2         First time derivative of ED First time derivative of Platform roll tilt rotation DOF (internal DOF index = DOF_R), rad/s/s
         16   -5.053E-07                                 F               2         First time derivative of ED First time derivative of Platform pitch tilt rotation DOF (internal DOF index = DOF_P), rad/s/s
         17   -4.862E-06                                 F               2         First time derivative of ED First time derivative of Platform yaw rotation DOF (internal DOF index = DOF_Y), rad/s/s
         18    6.966E-04                                 F               2         First time derivative of ED First time derivative of 1st tower fore-aft bending mode DOF (internal DOF index = DOF_TFA1), m/s/s
         19    1.951E-04                                 F               2         First time derivative of ED First time derivative of 1st tower side-to-side bending mode DOF (internal DOF index = DOF_TSS1), m/s/s
         20   -1.754E-06                                 F               2         First time derivative of ED First time derivative of 2nd tower fore-aft bending mode DOF (internal DOF index = DOF_TFA2), m/s/s
         21   -2.939E-07                                 F               2         First time derivative of ED First time derivative of 2nd tower side-to-side bending mode DOF (internal DOF index = DOF_TSS2), m/s/s
         22   -9.139E-05                                 F               2         First time derivative of ED First time derivative of Variable speed generator DOF (internal DOF index = DOF_GeAz), rad/s/s

Order of inputs:
     Column   Operating Point                     Rotating Frame? Derivative Order Description
   ---------- ---------------                     --------------- ---------------- -----------
          1   -1.080E+01                                 F               0         IfW X-component position of node 1 (hub), m
          2    0.000E+00                                 F               0         IfW Y-component position of node 1 (hub), m
          3    1.497E+02                                 F               0         IfW Z-component position of node 1 (hub), m
          4    9.046E+00                                 F               0         IfW X-component position of node 2 (blade 1, node 1), m
          5   -9.522E+00                                 F               0         IfW Y-component position of node 2 (blade 1, node 1), m
          6    1.548E+02                                 F               0         IfW Z-component position of node 2 (blade 1, node 1), m
          7    9.282E+00                                 F               0         IfW X-component position of node 3 (blade 1, node 2), m
          8   -1.010E+01                                 F               0         IfW Y-component position of node 3 (blade 1, node 2), m
          9    1.560E+02                                 F               0         IfW Z-component position of node 3 (blade 1, node 2), m
         10    1.250E+01                                 F               0         IfW X-component position of node 4 (blade 1, node 3), m
         11   -1.799E+01                                 F               0         IfW Y-component position of node 4 (blade 1, node 3), m
         12    1.720E+02                                 F               0         IfW Z-component position of node 4 (blade 1, node 3), m
         13    1.319E+01                                 F               0         IfW X-component position of node 5 (blade 1, node 4), m
         14   -1.968E+01                                 F               0         IfW Y-component position of node 5 (blade 1, node 4), m
         15    1.754E+02                                 F               0         IfW Z-component position of node 5 (blade 1, node 4), m
         16    1.387E+01                                 F               0         IfW X-component position of node 6 (blade 1, node 5), m
         17   -2.136E+01                                 F               0         IfW Y-component position of node 6 (blade 1, node 5), m
         18    1.788E+02                                 F               0         IfW Z-component position of node 6 (blade 1, node 5), m
         19    1.456E+01                                 F               0         IfW X-component position of node 7 (blade 1, node 6), m
         20   -2.304E+01                                 F               0         IfW Y-component position of node 7 (blade 1, node 6), m
         21    1.822E+02                                 F               0         IfW Z-component position of node 7 (blade 1, node 6), m
         22    1.524E+01                                 F               0         IfW X-component position of node 8 (blade 1, node 7), m
         23   -2.472E+01                                 F               0         IfW Y-component position of node 8 (blade 1, node 7), m
         24    1.857E+02                                 F               0         IfW Z-component position of node 8 (blade 1, node 7), m
         25    1.593E+01                                 F               0         IfW X-component position of node 9 (blade 1, node 8), m
         26   -2.640E+01                                 F               0         IfW Y-component position of node 9 (blade 1, node 8), m
         27    1.891E+02                                 F               0         IfW Z-component position of node 9 (blade 1, node 8), m
         28    1.662E+01                                 F               0         IfW X-component position of node 10 (blade 1, node 9), m
         29   -2.808E+01                                 F               0         IfW Y-component position of node 10 (blade 1, node 9), m
         30    1.925E+02                                 F               0         IfW Z-component position of node 10 (blade 1, node 9), m
         31    1.730E+01                                 F               0         IfW X-component position of node 11 (blade 1, node 10), m
         32   -2.976E+01                                 F               0         IfW Y-component position of node 11 (blade 1, node 10), m
         33    1.959E+02                                 F               0         IfW Z-component position of node 11 (blade 1, node 10), m
         34    1.799E+01                                 F               0         IfW X-component position of node 12 (blade 1, node 11), m
         35   -3.145E+01                                 F               0         IfW Y-component position of node 12 (blade 1, node 11), m
         36    1.993E+02                                 F               0         IfW Z-component position of node 12 (blade 1, node 11), m
         37    1.867E+01                                 F               0         IfW X-component position of node 13 (blade 1, node 12), m
         38   -3.313E+01                                 F               0         IfW Y-component position of node 13 (blade 1, node 12), m
         39    2.027E+02                                 F               0         IfW Z-component position of node 13 (blade 1, node 12), m
         40    1.936E+01                                 F               0         IfW X-component position of node 14 (blade 1, node 13), m
         41   -3.481E+01                                 F               0         IfW Y-component position of node 14 (blade 1, node 13), m
         42    2.062E+02                                 F               0         IfW Z-component position of node 14 (blade 1, node 13), m
         43    2.005E+01                                 F               0         IfW X-component position of node 15 (blade 1, node 14), m
         44   -3.649E+01                                 F               0         IfW Y-component position of node 15 (blade 1, node 14), m
         45    2.096E+02                                 F               0         IfW Z-component position of node 15 (blade 1, node 14), m
         46    2.073E+01                                 F               0         IfW X-component position of node 16 (blade 1, node 15), m
         47   -3.817E+01                                 F               0         IfW Y-component position of node 16 (blade 1, node 15), m
         48    2.130E+02                                 F               0         IfW Z-component position of node 16 (blade 1, node 15), m
         49    2.142E+01                                 F               0         IfW X-component position of node 17 (blade 1, node 16), m
         50   -3.985E+01                                 F               0         IfW Y-component position of node 17 (blade 1, node 16), m
         51    2.164E+02                                 F               0         IfW Z-component position of node 17 (blade 1, node 16), m
         52    2.210E+01                                 F               0         IfW X-component position of node 18 (blade 1, node 17), m
         53   -4.153E+01                                 F               0         IfW Y-component position of node 18 (blade 1, node 17), m
         54    2.198E+02                                 F               0         IfW Z-component position of node 18 (blade 1, node 17), m
         55    2.279E+01                                 F               0         IfW X-component position of node 19 (blade 1, node 18), m
         56   -4.322E+01                                 F               0         IfW Y-component position of node 19 (blade 1, node 18), m
         57    2.232E+02                                 F               0         IfW Z-component position of node 19 (blade 1, node 18), m
         58    2.348E+01                                 F               0         IfW X-component position of node 20 (blade 1, node 19), m
         59   -4.490E+01                                 F               0         IfW Y-component position of node 20 (blade 1, node 19), m
         60    2.266E+02                                 F               0         IfW Z-component position of node 20 (blade 1, node 19), m
         61    2.416E+01                                 F               0         IfW X-component position of node 21 (blade 1, node 20), m
         62   -4.658E+01                                 F               0         IfW Y-component position of node 21 (blade 1, node 20), m
         63    2.301E+02                                 F               0         IfW Z-component position of node 21 (blade 1, node 20), m
         64    2.485E+01                                 F               0         IfW X-component position of node 22 (blade 1, node 21), m
         65   -4.826E+01                                 F               0         IfW Y-component position of node 22 (blade 1, node 21), m
         66    2.335E+02                                 F               0         IfW Z-component position of node 22 (blade 1, node 21), m
         67    2.553E+01                                 F               0         IfW X-component position of node 23 (blade 1, node 22), m
         68   -4.994E+01                                 F               0         IfW Y-component position of node 23 (blade 1, node 22), m
         69    2.369E+02                                 F               0         IfW Z-component position of node 23 (blade 1, node 22), m
         70    2.622E+01                                 F               0         IfW X-component position of node 24 (blade 1, node 23), m
         71   -5.162E+01                                 F               0         IfW Y-component position of node 24 (blade 1, node 23), m
         72    2.403E+02                                 F               0         IfW Z-component position of node 24 (blade 1, node 23), m
         73    2.690E+01                                 F               0         IfW X-component position of node 25 (blade 1, node 24), m
         74   -5.330E+01                                 F               0         IfW Y-component position of node 25 (blade 1, node 24), m
         75    2.437E+02                                 F               0         IfW Z-component position of node 25 (blade 1, node 24), m
         76    2.759E+01                                 F               0         IfW X-component position of node 26 (blade 1, node 25), m
         77   -5.499E+01                                 F               0         IfW Y-component position of node 26 (blade 1, node 25), m
         78    2.471E+02                                 F               0         IfW Z-component position of node 26 (blade 1, node 25), m
         79    2.828E+01                                 F               0         IfW X-component position of node 27 (blade 1, node 26), m
         80   -5.667E+01                                 F               0         IfW Y-component position of node 27 (blade 1, node 26), m
         81    2.505E+02                                 F               0         IfW Z-component position of node 27 (blade 1, node 26), m
         82    2.896E+01                                 F               0         IfW X-component position of node 28 (blade 1, node 27), m
         83   -5.835E+01                                 F               0         IfW Y-component position of node 28 (blade 1, node 27), m
         84    2.540E+02                                 F               0         IfW Z-component position of node 28 (blade 1, node 27), m
         85    2.954E+01                                 F               0         IfW X-component position of node 29 (blade 1, node 28), m
         86   -5.977E+01                                 F               0         IfW Y-component position of node 29 (blade 1, node 28), m
         87    2.569E+02                                 F               0         IfW Z-component position of node 29 (blade 1, node 28), m
         88    7.209E+00                                 F               0         IfW X-component position of node 30 (blade 2, node 1), m
         89   -1.023E+01                                 F               0         IfW Y-component position of node 30 (blade 2, node 1), m
         90    1.454E+02                                 F               0         IfW Z-component position of node 30 (blade 2, node 1), m
         91    7.003E+00                                 F               0         IfW X-component position of node 31 (blade 2, node 2), m
         92   -1.098E+01                                 F               0         IfW Y-component position of node 31 (blade 2, node 2), m
         93    1.443E+02                                 F               0         IfW Z-component position of node 31 (blade 2, node 2), m
         94    4.205E+00                                 F               0         IfW X-component position of node 32 (blade 2, node 3), m
         95   -2.119E+01                                 F               0         IfW Y-component position of node 32 (blade 2, node 3), m
         96    1.296E+02                                 F               0         IfW Z-component position of node 32 (blade 2, node 3), m
         97    3.609E+00                                 F               0         IfW X-component position of node 33 (blade 2, node 4), m
         98   -2.337E+01                                 F               0         IfW Y-component position of node 33 (blade 2, node 4), m
         99    1.264E+02                                 F               0         IfW Z-component position of node 33 (blade 2, node 4), m
        100    3.012E+00                                 F               0         IfW X-component position of node 34 (blade 2, node 5), m
        101   -2.554E+01                                 F               0         IfW Y-component position of node 34 (blade 2, node 5), m
        102    1.233E+02                                 F               0         IfW Z-component position of node 34 (blade 2, node 5), m
        103    2.416E+00                                 F               0         IfW X-component position of node 35 (blade 2, node 6), m
        104   -2.772E+01                                 F               0         IfW Y-component position of node 35 (blade 2, node 6), m
        105    1.202E+02                                 F               0         IfW Z-component position of node 35 (blade 2, node 6), m
        106    1.820E+00                                 F               0         IfW X-component position of node 36 (blade 2, node 7), m
        107   -2.989E+01                                 F               0         IfW Y-component position of node 36 (blade 2, node 7), m
        108    1.170E+02                                 F               0         IfW Z-component position of node 36 (blade 2, node 7), m
        109    1.224E+00                                 F               0         IfW X-component position of node 37 (blade 2, node 8), m
        110   -3.207E+01                                 F               0         IfW Y-component position of node 37 (blade 2, node 8), m
        111    1.139E+02                                 F               0         IfW Z-component position of node 37 (blade 2, node 8), m
        112    6.273E-01                                 F               0         IfW X-component position of node 38 (blade 2, node 9), m
        113   -3.424E+01                                 F               0         IfW Y-component position of node 38 (blade 2, node 9), m
        114    1.107E+02                                 F               0         IfW Z-component position of node 38 (blade 2, node 9), m
        115    3.103E-02                                 F               0         IfW X-component position of node 39 (blade 2, node 10), m
        116   -3.642E+01                                 F               0         IfW Y-component position of node 39 (blade 2, node 10), m
        117    1.076E+02                                 F               0         IfW Z-component position of node 39 (blade 2, node 10), m
        118   -5.652E-01                                 F               0         IfW X-component position of node 40 (blade 2, node 11), m
        119   -3.860E+01                                 F               0         IfW Y-component position of node 40 (blade 2, node 11), m
        120    1.044E+02                                 F               0         IfW Z-component position of node 40 (blade 2, node 11), m
        121   -1.162E+00                                 F               0         IfW X-component position of node 41 (blade 2, node 12), m
        122   -4.077E+01                                 F               0         IfW Y-component position of node 41 (blade 2, node 12), m
        123    1.013E+02                                 F               0         IfW Z-component position of node 41 (blade 2, node 12), m
        124   -1.758E+00                                 F               0         IfW X-component position of node 42 (blade 2, node 13), m
        125   -4.295E+01                                 F               0         IfW Y-component position of node 42 (blade 2, node 13), m
        126    9.816E+01                                 F               0         IfW Z-component position of node 42 (blade 2, node 13), m
        127   -2.354E+00                                 F               0         IfW X-component position of node 43 (blade 2, node 14), m
        128   -4.512E+01                                 F               0         IfW Y-component position of node 43 (blade 2, node 14), m
        129    9.502E+01                                 F               0         IfW Z-component position of node 43 (blade 2, node 14), m
        130   -2.950E+00                                 F               0         IfW X-component position of node 44 (blade 2, node 15), m
        131   -4.730E+01                                 F               0         IfW Y-component position of node 44 (blade 2, node 15), m
        132    9.188E+01                                 F               0         IfW Z-component position of node 44 (blade 2, node 15), m
        133   -3.547E+00                                 F               0         IfW X-component position of node 45 (blade 2, node 16), m
        134   -4.947E+01                                 F               0         IfW Y-component position of node 45 (blade 2, node 16), m
        135    8.873E+01                                 F               0         IfW Z-component position of node 45 (blade 2, node 16), m
        136   -4.143E+00                                 F               0         IfW X-component position of node 46 (blade 2, node 17), m
        137   -5.165E+01                                 F               0         IfW Y-component position of node 46 (blade 2, node 17), m
        138    8.559E+01                                 F               0         IfW Z-component position of node 46 (blade 2, node 17), m
        139   -4.739E+00                                 F               0         IfW X-component position of node 47 (blade 2, node 18), m
        140   -5.382E+01                                 F               0         IfW Y-component position of node 47 (blade 2, node 18), m
        141    8.245E+01                                 F               0         IfW Z-component position of node 47 (blade 2, node 18), m
        142   -5.335E+00                                 F               0         IfW X-component position of node 48 (blade 2, node 19), m
        143   -5.600E+01                                 F               0         IfW Y-component position of node 48 (blade 2, node 19), m
        144    7.931E+01                                 F               0         IfW Z-component position of node 48 (blade 2, node 19), m