
Linearized model: Predictions were generated on 11-Jan-2024 at 12:32:35 using OpenFAST, compiled as a 64-bit application using single precision at commit v3.5.1
 linked with  NWTC Subroutine Library; ElastoDyn; InflowWind; AeroDyn; ServoDyn; HydroDyn; MoorDyn (v2.0.0, 2023-09-18)

Description from the FAST input file: CCT-9 Campign 4 model. Input files to be run with OpenFAST 3.5.0. GitHub branch from Lu Wang (https://github.com/luwang00/openfast/tree/dev) compiled on March 7, 2023.

Simulation information:
   Simulation time:                   501.0000 s
   Rotor Speed:                         0.7077 rad/s
   Azimuth:                             4.2477 rad
   Wind Speed:                          8.0000 m/s
   Number of continuous states:         0
   Number of discrete states:           0
   Number of constraint states:         0
   Number of inputs:                 1746
   Number of outputs:                   4
   Jacobians included in this file?    No

Order of inputs:
     Column   Operating Point                     Rotating Frame? Derivative Order Description
   ---------- ---------------                     --------------- ---------------- -----------
          1    7.305E+00                                 F               0         Tower X translation displacement, node 1, m
          2   -1.240E+00                                 F               0         Tower Y translation displacement, node 1, m
          3   -1.689E-01                                 F               0         Tower Z translation displacement, node 1, m
          4    8.348E+00                                 F               0         Tower X translation displacement, node 2, m
          5   -1.774E+00                                 F               0         Tower Y translation displacement, node 2, m
          6   -2.246E-01                                 F               0         Tower Z translation displacement, node 2, m
          7    9.407E+00                                 F               0         Tower X translation displacement, node 3, m
          8   -2.314E+00                                 F               0         Tower Y translation displacement, node 3, m
          9   -2.818E-01                                 F               0         Tower Z translation displacement, node 3, m
         10    1.048E+01                                 F               0         Tower X translation displacement, node 4, m
         11   -2.857E+00                                 F               0         Tower Y translation displacement, node 4, m
         12   -3.403E-01                                 F               0         Tower Z translation displacement, node 4, m
         13    1.156E+01                                 F               0         Tower X translation displacement, node 5, m
         14   -3.404E+00                                 F               0         Tower Y translation displacement, node 5, m
         15   -3.997E-01                                 F               0         Tower Z translation displacement, node 5, m
         16    1.264E+01                                 F               0         Tower X translation displacement, node 6, m
         17   -3.953E+00                                 F               0         Tower Y translation displacement, node 6, m
         18   -4.599E-01                                 F               0         Tower Z translation displacement, node 6, m
         19    1.374E+01                                 F               0         Tower X translation displacement, node 7, m
         20   -4.505E+00                                 F               0         Tower Y translation displacement, node 7, m
         21   -5.207E-01                                 F               0         Tower Z translation displacement, node 7, m
         22    1.483E+01                                 F               0         Tower X translation displacement, node 8, m
         23   -5.059E+00                                 F               0         Tower Y translation displacement, node 8, m
         24   -5.819E-01                                 F               0         Tower Z translation displacement, node 8, m
         25    1.593E+01                                 F               0         Tower X translation displacement, node 9, m
         26   -5.614E+00                                 F               0         Tower Y translation displacement, node 9, m
         27   -6.434E-01                                 F               0         Tower Z translation displacement, node 9, m
         28    1.703E+01                                 F               0         Tower X translation displacement, node 10, m
         29   -6.171E+00                                 F               0         Tower Y translation displacement, node 10, m
         30   -7.051E-01                                 F               0         Tower Z translation displacement, node 10, m
         31    1.813E+01                                 F               0         Tower X translation displacement, node 11, m
         32   -6.728E+00                                 F               0         Tower Y translation displacement, node 11, m
         33   -7.669E-01                                 F               0         Tower Z translation displacement, node 11, m
         34    9.965E-01,  4.247E-03, -8.380E-02         F               0         Tower X orientation angle, node 1, rad
         35   -6.188E-04,  9.991E-01,  4.328E-02         F               0         Tower Y orientation angle, node 1, rad
         36    8.390E-02, -4.308E-02,  9.955E-01         F               0         Tower Z orientation angle, node 1, rad
         37    9.964E-01,  4.300E-03, -8.501E-02         F               0         Tower X orientation angle, node 2, rad
         38   -5.859E-04,  9.990E-01,  4.367E-02         F               0         Tower Y orientation angle, node 2, rad
         39    8.511E-02, -4.346E-02,  9.954E-01         F               0         Tower Z orientation angle, node 2, rad
         40    9.963E-01,  4.346E-03, -8.605E-02         F               0         Tower X orientation angle, node 3, rad
         41   -5.559E-04,  9.990E-01,  4.402E-02         F               0         Tower Y orientation angle, node 3, rad
         42    8.615E-02, -4.381E-02,  9.953E-01         F               0         Tower Z orientation angle, node 3, rad
         43    9.962E-01,  4.383E-03, -8.690E-02         F               0         Tower X orientation angle, node 4, rad
         44   -5.295E-04,  9.990E-01,  4.432E-02         F               0         Tower Y orientation angle, node 4, rad
         45    8.701E-02, -4.411E-02,  9.952E-01         F               0         Tower Z orientation angle, node 4, rad
         46    9.961E-01,  4.414E-03, -8.759E-02         F               0         Tower X orientation angle, node 5, rad
         47   -5.067E-04,  9.990E-01,  4.458E-02         F               0         Tower Y orientation angle, node 5, rad
         48    8.770E-02, -4.437E-02,  9.952E-01         F               0         Tower Z orientation angle, node 5, rad
         49    9.961E-01,  4.437E-03, -8.811E-02         F               0         Tower X orientation angle, node 6, rad
         50   -4.875E-04,  9.990E-01,  4.480E-02         F               0         Tower Y orientation angle, node 6, rad
         51    8.822E-02, -4.458E-02,  9.951E-01         F               0         Tower Z orientation angle, node 6, rad
         52    9.961E-01,  4.454E-03, -8.848E-02         F               0         Tower X orientation angle, node 7, rad
         53   -4.721E-04,  9.990E-01,  4.497E-02         F               0         Tower Y orientation angle, node 7, rad
         54    8.859E-02, -4.476E-02,  9.951E-01         F               0         Tower Z orientation angle, node 7, rad
         55    9.960E-01,  4.466E-03, -8.874E-02         F               0         Tower X orientation angle, node 8, rad
         56   -4.600E-04,  9.990E-01,  4.511E-02         F               0         Tower Y orientation angle, node 8, rad
         57    8.885E-02, -4.489E-02,  9.950E-01         F               0         Tower Z orientation angle, node 8, rad
         58    9.960E-01,  4.473E-03, -8.890E-02         F               0         Tower X orientation angle, node 9, rad
         59   -4.513E-04,  9.990E-01,  4.521E-02         F               0         Tower Y orientation angle, node 9, rad
         60    8.901E-02, -4.499E-02,  9.950E-01         F               0         Tower Z orientation angle, node 9, rad
         61    9.960E-01,  4.477E-03, -8.899E-02         F               0         Tower X orientation angle, node 10, rad
         62   -4.455E-04,  9.990E-01,  4.527E-02         F               0         Tower Y orientation angle, node 10, rad
         63    8.910E-02, -4.505E-02,  9.950E-01         F               0         Tower Z orientation angle, node 10, rad
         64    9.960E-01,  4.479E-03, -8.903E-02         F               0         Tower X orientation angle, node 11, rad
         65   -4.424E-04,  9.990E-01,  4.531E-02         F               0         Tower Y orientation angle, node 11, rad
         66    8.914E-02, -4.509E-02,  9.950E-01         F               0         Tower Z orientation angle, node 11, rad
         67   -3.878E-03                                 F               0         Tower X translation velocity, node 1, m/s
         68    2.323E-03                                 F               0         Tower Y translation velocity, node 1, m/s
         69    1.416E-03                                 F               0         Tower Z translation velocity, node 1, m/s
         70   -3.739E-03                                 F               0         Tower X translation velocity, node 2, m/s
         71    2.977E-03                                 F               0         Tower Y translation velocity, node 2, m/s
         72    1.433E-03                                 F               0         Tower Z translation velocity, node 2, m/s
         73   -3.612E-03                                 F               0         Tower X translation velocity, node 3, m/s
         74    3.656E-03                                 F               0         Tower Y translation velocity, node 3, m/s
         75    1.452E-03                                 F               0         Tower Z translation velocity, node 3, m/s
         76   -3.495E-03                                 F               0         Tower X translation velocity, node 4, m/s
         77    4.354E-03                                 F               0         Tower Y translation velocity, node 4, m/s
         78    1.473E-03                                 F               0         Tower Z translation velocity, node 4, m/s
         79   -3.387E-03                                 F               0         Tower X translation velocity, node 5, m/s
         80    5.070E-03                                 F               0         Tower Y translation velocity, node 5, m/s
         81    1.495E-03                                 F               0         Tower Z translation velocity, node 5, m/s
         82   -3.290E-03                                 F               0         Tower X translation velocity, node 6, m/s
         83    5.801E-03                                 F               0         Tower Y translation velocity, node 6, m/s
         84    1.519E-03                                 F               0         Tower Z translation velocity, node 6, m/s
         85   -3.201E-03                                 F               0         Tower X translation velocity, node 7, m/s
         86    6.543E-03                                 F               0         Tower Y translation velocity, node 7, m/s
         87    1.544E-03                                 F               0         Tower Z translation velocity, node 7, m/s
         88   -3.120E-03                                 F               0         Tower X translation velocity, node 8, m/s
         89    7.296E-03                                 F               0         Tower Y translation velocity, node 8, m/s
         90    1.571E-03                                 F               0         Tower Z translation velocity, node 8, m/s
         91   -3.046E-03                                 F               0         Tower X translation velocity, node 9, m/s
         92    8.058E-03                                 F               0         Tower Y translation velocity, node 9, m/s
         93    1.599E-03                                 F               0         Tower Z translation velocity, node 9, m/s
         94   -2.978E-03                                 F               0         Tower X translation velocity, node 10, m/s
         95    8.826E-03                                 F               0         Tower Y translation velocity, node 10, m/s
         96    1.628E-03                                 F               0         Tower Z translation velocity, node 10, m/s
         97   -2.914E-03                                 F               0         Tower X translation velocity, node 11, m/s
         98    9.597E-03                                 F               0         Tower Y translation velocity, node 11, m/s
         99    1.657E-03                                 F               0         Tower Z translation velocity, node 11, m/s
        100    1.888E+01                                 F               0         Hub X translation displacement, node 1, m
        101   -7.130E+00                                 F               0         Hub Y translation displacement, node 1, m
        102    1.554E-01                                 F               0         Hub Z translation displacement, node 1, m
        103    9.812E-01,  9.168E-03, -1.925E-01         F               0         Hub X orientation angle, node 1, rad
        104   -1.721E-01, -4.080E-01, -8.966E-01         F               0         Hub Y orientation angle, node 1, rad
        105   -8.678E-02,  9.129E-01, -3.988E-01         F               0         Hub Z orientation angle, node 1, rad
        106    6.944E-01                                 F               0         Hub X rotation velocity, node 1, rad/s
        107    6.493E-03                                 F               0         Hub Y rotation velocity, node 1, rad/s
        108   -1.363E-01                                 F               0         Hub Z rotation velocity, node 1, rad/s
        109    9.859E-01,  2.127E-02, -1.659E-01         F               0         Blade root 1 X orientation angle, node 1, rad
        110   -1.429E-01, -4.076E-01, -9.019E-01         F               0         Blade root 1 Y orientation angle, node 1, rad
        111   -8.678E-02,  9.129E-01, -3.988E-01         F               0         Blade root 1 Z orientation angle, node 1, rad
        112    9.805E-01, -2.034E-02, -1.955E-01         F               0         Blade root 2 X orientation angle, node 1, rad
        113    4.001E-02,  9.945E-01,  9.719E-02         F               0         Blade root 2 Y orientation angle, node 1, rad
        114    1.925E-01, -1.031E-01,  9.759E-01         F               0         Blade root 2 Z orientation angle, node 1, rad
        115    9.760E-01,  2.657E-02, -2.160E-01         F               0         Blade root 3 X orientation angle, node 1, rad
        116    1.903E-01, -5.861E-01,  7.876E-01         F               0         Blade root 3 Y orientation angle, node 1, rad
        117   -1.057E-01, -8.098E-01, -5.771E-01         F               0         Blade root 3 Z orientation angle, node 1, rad
        118    1.782E+01                                 F               0         Blade 1 X translation displacement, node 1, m
        119   -2.072E+00                                 F               0         Blade 1 Y translation displacement, node 1, m
        120   -7.564E+00                                 F               0         Blade 1 Z translation displacement, node 1, m
        121    1.756E+01                                 F               0         Blade 1 X translation displacement, node 2, m
        122   -8.536E-01                                 F               0         Blade 1 Y translation displacement, node 2, m
        123   -9.423E+00                                 F               0         Blade 1 Z translation displacement, node 2, m
        124    1.409E+01                                 F               0         Blade 1 X translation displacement, node 3, m
        125    1.572E+01                                 F               0         Blade 1 Y translation displacement, node 3, m
        126   -3.472E+01                                 F               0         Blade 1 Z translation displacement, node 3, m
        127    1.335E+01                                 F               0         Blade 1 X translation displacement, node 4, m
        128    1.925E+01                                 F               0         Blade 1 Y translation displacement, node 4, m
        129   -4.010E+01                                 F               0         Blade 1 Z translation displacement, node 4, m
        130    1.261E+01                                 F               0         Blade 1 X translation displacement, node 5, m
        131    2.278E+01                                 F               0         Blade 1 Y translation displacement, node 5, m
        132   -4.549E+01                                 F               0         Blade 1 Z translation displacement, node 5, m
        133    1.187E+01                                 F               0         Blade 1 X translation displacement, node 6, m
        134    2.631E+01                                 F               0         Blade 1 Y translation displacement, node 6, m
        135   -5.088E+01                                 F               0         Blade 1 Z translation displacement, node 6, m
        136    1.113E+01                                 F               0         Blade 1 X translation displacement, node 7, m
        137    2.984E+01                                 F               0         Blade 1 Y translation displacement, node 7, m
        138   -5.627E+01                                 F               0         Blade 1 Z translation displacement, node 7, m
        139    1.039E+01                                 F               0         Blade 1 X translation displacement, node 8, m
        140    3.337E+01                                 F               0         Blade 1 Y translation displacement, node 8, m
        141   -6.166E+01                                 F               0         Blade 1 Z translation displacement, node 8, m
        142    9.648E+00                                 F               0         Blade 1 X translation displacement, node 9, m
        143    3.690E+01                                 F               0         Blade 1 Y translation displacement, node 9, m
        144   -6.705E+01                                 F               0         Blade 1 Z translation displacement, node 9, m
        145    8.909E+00                                 F               0         Blade 1 X translation displacement, node 10, m
        146    4.043E+01                                 F               0         Blade 1 Y translation displacement, node 10, m
        147   -7.244E+01                                 F               0         Blade 1 Z translation displacement, node 10, m
        148    8.169E+00                                 F               0         Blade 1 X translation displacement, node 11, m
        149    4.397E+01                                 F               0         Blade 1 Y translation displacement, node 11, m
        150   -7.783E+01                                 F               0         Blade 1 Z translation displacement, node 11, m
        151    7.429E+00                                 F               0         Blade 1 X translation displacement, node 12, m
        152    4.750E+01                                 F               0         Blade 1 Y translation displacement, node 12, m
        153   -8.322E+01                                 F               0         Blade 1 Z translation displacement, node 12, m
        154    6.689E+00                                 F               0         Blade 1 X translation displacement, node 13, m
        155    5.103E+01                                 F               0         Blade 1 Y translation displacement, node 13, m
        156   -8.860E+01                                 F               0         Blade 1 Z translation displacement, node 13, m
        157    5.949E+00                                 F               0         Blade 1 X translation displacement, node 14, m
        158    5.456E+01                                 F               0         Blade 1 Y translation displacement, node 14, m
        159   -9.399E+01                                 F               0         Blade 1 Z translation displacement, node 14, m
        160    5.209E+00                                 F               0         Blade 1 X translation displacement, node 15, m
        161    5.809E+01                                 F               0         Blade 1 Y translation displacement, node 15, m
        162   -9.938E+01                                 F               0         Blade 1 Z translation displacement, node 15, m
        163    4.469E+00                                 F               0         Blade 1 X translation displacement, node 16, m
        164    6.162E+01                                 F               0         Blade 1 Y translation displacement, node 16, m
        165   -1.048E+02                                 F               0         Blade 1 Z translation displacement, node 16, m
        166    3.729E+00                                 F               0         Blade 1 X translation displacement, node 17, m
        167    6.515E+01                                 F               0         Blade 1 Y translation displacement, node 17, m
        168   -1.102E+02                                 F               0         Blade 1 Z translation displacement, node 17, m
        169    2.989E+00                                 F               0         Blade 1 X translation displacement, node 18, m
        170    6.868E+01                                 F               0         Blade 1 Y translation displacement, node 18, m
        171   -1.155E+02                                 F               0         Blade 1 Z translation displacement, node 18, m
        172    2.249E+00                                 F               0         Blade 1 X translation displacement, node 19, m
        173    7.221E+01                                 F               0         Blade 1 Y translation displacement, node 19, m
        174   -1.209E+02                                 F               0         Blade 1 Z translation displacement, node 19, m
        175    1.509E+00                                 F               0         Blade 1 X translation displacement, node 20, m
        176    7.574E+01                                 F               0         Blade 1 Y translation displacement, node 20, m
        177   -1.263E+02                                 F               0         Blade 1 Z translation displacement, node 20, m
        178    7.694E-01                                 F               0         Blade 1 X translation displacement, node 21, m
        179    7.927E+01                                 F               0         Blade 1 Y translation displacement, node 21, m
        180   -1.317E+02                                 F               0         Blade 1 Z translation displacement, node 21, m
        181    2.938E-02                                 F               0         Blade 1 X translation displacement, node 22, m
        182    8.281E+01                                 F               0         Blade 1 Y translation displacement, node 22, m
        183   -1.371E+02                                 F               0         Blade 1 Z translation displacement, node 22, m
        184   -7.105E-01                                 F               0         Blade 1 X translation displacement, node 23, m
        185    8.634E+01                                 F               0         Blade 1 Y translation displacement, node 23, m
        186   -1.425E+02                                 F               0         Blade 1 Z translation displacement, node 23, m
        187   -1.450E+00                                 F               0         Blade 1 X translation displacement, node 24, m
        188    8.987E+01                                 F               0         Blade 1 Y translation displacement, node 24, m
        189   -1.479E+02                                 F               0         Blade 1 Z translation displacement, node 24, m
        190   -2.190E+00                                 F               0         Blade 1 X translation displacement, node 25, m
        191    9.340E+01                                 F               0         Blade 1 Y translation displacement, node 25, m
        192   -1.533E+02                                 F               0         Blade 1 Z translation displacement, node 25, m
        193   -2.930E+00                                 F               0         Blade 1 X translation displacement, node 26, m
        194    9.693E+01                                 F               0         Blade 1 Y translation displacement, node 26, m
        195   -1.587E+02                                 F               0         Blade 1 Z translation displacement, node 26, m
        196   -3.670E+00                                 F               0         Blade 1 X translation displacement, node 27, m
        197    1.005E+02                                 F               0         Blade 1 Y translation displacement, node 27, m
        198   -1.640E+02                                 F               0         Blade 1 Z translation displacement, node 27, m
        199   -4.297E+00                                 F               0         Blade 1 X translation displacement, node 28, m
        200    1.035E+02                                 F               0         Blade 1 Y translation displacement, node 28, m
        201   -1.686E+02                                 F               0         Blade 1 Z translation displacement, node 28, m
        202    9.426E-01,  2.048E-01,  2.637E-01         F               0         Blade 1 X orientation angle, node 1, rad
        203    3.224E-01, -3.530E-01, -8.783E-01         F               0         Blade 1 Y orientation angle, node 1, rad
        204   -8.678E-02,  9.129E-01, -3.988E-01         F               0         Blade 1 Z orientation angle, node 1, rad
        205    9.426E-01,  2.048E-01,  2.637E-01         F               0         Blade 1 X orientation angle, node 2, rad
        206    3.224E-01, -3.530E-01, -8.783E-01         F               0         Blade 1 Y orientation angle, node 2, rad
        207   -8.678E-02,  9.129E-01, -3.988E-01         F               0         Blade 1 Z orientation angle, node 2, rad
        208    9.922E-01,  1.153E-01,  4.799E-02         F               0         Blade 1 X orientation angle, node 3, rad
        209    8.979E-02, -3.915E-01, -9.158E-01         F               0         Blade 1 Y orientation angle, node 3, rad
        210   -8.678E-02,  9.129E-01, -3.988E-01         F               0         Blade 1 Z orientation angle, node 3, rad
        211    9.951E-01,  9.864E-02,  9.282E-03         F               0         Blade 1 X orientation angle, node 4, rad
        212    4.781E-02, -3.960E-01, -9.170E-01         F               0         Blade 1 Y orientation angle, node 4, rad
        213   -8.678E-02,  9.129E-01, -3.988E-01         F               0         Blade 1 Z orientation angle, node 4, rad
        214    9.961E-01,  8.546E-02, -2.113E-02         F               0         Blade 1 X orientation angle, node 5, rad
        215    1.479E-02, -3.991E-01, -9.168E-01         F               0         Blade 1 Y orientation angle, node 5, rad
        216   -8.678E-02,  9.129E-01, -3.988E-01         F               0         Blade 1 Z orientation angle, node 5, rad
        217    9.962E-01,  7.484E-02, -4.544E-02         F               0         Blade 1 X orientation angle, node 6, rad
        218   -1.163E-02, -4.012E-01, -9.159E-01         F               0         Blade 1 Y orientation angle, node 6, rad
        219   -8.678E-02,  9.129E-01, -3.988E-01         F               0         Blade 1 Z orientation angle, node 6, rad
        220    9.957E-01,  6.607E-02, -6.541E-02         F               0         Blade 1 X orientation angle, node 7, rad
        221   -3.336E-02, -4.027E-01, -9.147E-01         F               0         Blade 1 Y orientation angle, node 7, rad
        222   -8.678E-02,  9.129E-01, -3.988E-01         F               0         Blade 1 Z orientation angle, node 7, rad
        223    9.949E-01,  5.875E-02, -8.200E-02         F               0         Blade 1 X orientation angle, node 8, rad
        224   -5.143E-02, -4.039E-01, -9.134E-01         F               0         Blade 1 Y orientation angle, node 8, rad
        225   -8.678E-02,  9.129E-01, -3.988E-01         F               0         Blade 1 Z orientation angle, node 8, rad
        226    9.940E-01,  5.254E-02, -9.602E-02         F               0         Blade 1 X orientation angle, node 9, rad
        227   -6.670E-02, -4.047E-01, -9.120E-01         F               0         Blade 1 Y orientation angle, node 9, rad