
Linearized model: Predictions were generated on 11-Jan-2024 at 12:32:35 using OpenFAST, compiled as a 64-bit application using single precision at commit v3.5.1
 linked with  NWTC Subroutine Library; ElastoDyn; InflowWind; AeroDyn; ServoDyn; HydroDyn; MoorDyn (v2.0.0, 2023-09-18)

Description from the FAST input file: CCT-9 Campign 4 model. Input files to be run with OpenFAST 3.5.0. GitHub branch from Lu Wang (https://github.com/luwang00/openfast/tree/dev) compiled on March 7, 2023.

Simulation information:
   Simulation time:                   503.4750 s
   Rotor Speed:                         0.7074 rad/s
   Azimuth:                             5.9990 rad
   Wind Speed:                          8.0000 m/s
   Number of continuous states:        22
   Number of discrete states:           0
   Number of constraint states:         0
   Number of inputs:                 1890
   Number of outputs:                  38
   Jacobians included in this file?    No

Order of continuous states:
   Row/Column Operating Point                     Rotating Frame? Derivative Order Description
   ---------- ---------------                     --------------- ---------------- -----------
          1    5.755E+00                                 F               2         Platform horizontal surge translation DOF (internal DOF index = DOF_Sg), m
          2   -4.472E-01                                 F               2         Platform horizontal sway translation DOF (internal DOF index = DOF_Sw), m
          3   -8.048E-02                                 F               2         Platform vertical heave translation DOF (internal DOF index = DOF_Hv), m
          4    4.330E-02                                 F               2         Platform roll tilt rotation DOF (internal DOF index = DOF_R), rad
          5    8.424E-02                                 F               2         Platform pitch tilt rotation DOF (internal DOF index = DOF_P), rad
          6    2.456E-03                                 F               2         Platform yaw rotation DOF (internal DOF index = DOF_Y), rad
          7    4.629E-01                                 F               2         1st tower fore-aft bending mode DOF (internal DOF index = DOF_TFA1), m
          8    1.662E-01                                 F               2         1st tower side-to-side bending mode DOF (internal DOF index = DOF_TSS1), m
          9    1.458E-03                                 F               2         2nd tower fore-aft bending mode DOF (internal DOF index = DOF_TFA2), m
         10    7.510E-05                                 F               2         2nd tower side-to-side bending mode DOF (internal DOF index = DOF_TSS2), m
         11    4.428E+00                                 F               2         Variable speed generator DOF (internal DOF index = DOF_GeAz), rad
         12   -4.885E-03                                 F               2         First time derivative of Platform horizontal surge translation DOF (internal DOF index = DOF_Sg), m/s
         13    1.071E-03                                 F               2         First time derivative of Platform horizontal sway translation DOF (internal DOF index = DOF_Sw), m/s
         14    3.771E-03                                 F               2         First time derivative of Platform vertical heave translation DOF (internal DOF index = DOF_Hv), m/s
         15   -1.402E-05                                 F               2         First time derivative of Platform roll tilt rotation DOF (internal DOF index = DOF_R), rad/s
         16    5.930E-06                                 F               2         First time derivative of Platform pitch tilt rotation DOF (internal DOF index = DOF_P), rad/s
         17   -3.298E-06                                 F               2         First time derivative of Platform yaw rotation DOF (internal DOF index = DOF_Y), rad/s
         18    1.271E-04                                 F               2         First time derivative of 1st tower fore-aft bending mode DOF (internal DOF index = DOF_TFA1), m/s
         19    8.919E-05                                 F               2         First time derivative of 1st tower side-to-side bending mode DOF (internal DOF index = DOF_TSS1), m/s
         20   -1.261E-06                                 F               2         First time derivative of 2nd tower fore-aft bending mode DOF (internal DOF index = DOF_TFA2), m/s
         21   -3.197E-07                                 F               2         First time derivative of 2nd tower side-to-side bending mode DOF (internal DOF index = DOF_TSS2), m/s
         22    7.074E-01                                 F               2         First time derivative of Variable speed generator DOF (internal DOF index = DOF_GeAz), rad/s

Order of continuous state derivatives:
   Row/Column Operating Point                     Rotating Frame? Derivative Order Description
   ---------- ---------------                     --------------- ---------------- -----------
          1   -4.885E-03                                 F               2         First time derivative of Platform horizontal surge translation DOF (internal DOF index = DOF_Sg), m/s
          2    1.071E-03                                 F               2         First time derivative of Platform horizontal sway translation DOF (internal DOF index = DOF_Sw), m/s
          3    3.771E-03                                 F               2         First time derivative of Platform vertical heave translation DOF (internal DOF index = DOF_Hv), m/s
          4   -1.402E-05                                 F               2         First time derivative of Platform roll tilt rotation DOF (internal DOF index = DOF_R), rad/s
          5    5.930E-06                                 F               2         First time derivative of Platform pitch tilt rotation DOF (internal DOF index = DOF_P), rad/s
          6   -3.298E-06                                 F               2         First time derivative of Platform yaw rotation DOF (internal DOF index = DOF_Y), rad/s
          7    1.271E-04                                 F               2         First time derivative of 1st tower fore-aft bending mode DOF (internal DOF index = DOF_TFA1), m/s
          8    8.919E-05                                 F               2         First time derivative of 1st tower side-to-side bending mode DOF (internal DOF index = DOF_TSS1), m/s
          9   -1.261E-06                                 F               2         First time derivative of 2nd tower fore-aft bending mode DOF (internal DOF index = DOF_TFA2), m/s
         10   -3.197E-07                                 F               2         First time derivative of 2nd tower side-to-side bending mode DOF (internal DOF index = DOF_TSS2), m/s
         11    7.074E-01                                 F               2         First time derivative of Variable speed generator DOF (internal DOF index = DOF_GeAz), rad/s
         12   -1.320E-04                                 F               2         First time derivative of First time derivative of Platform horizontal surge translation DOF (internal DOF index = DOF_Sg), m/s/s
         13   -4.704E-05                                 F               2         First time derivative of First time derivative of Platform horizontal sway translation DOF (internal DOF index = DOF_Sw), m/s/s
         14    6.831E-04                                 F               2         First time derivative of First time derivative of Platform vertical heave translation DOF (internal DOF index = DOF_Hv), m/s/s
         15    1.079E-05                                 F               2         First time derivative of First time derivative of Platform roll tilt rotation DOF (internal DOF index = DOF_R), rad/s/s
         16    7.014E-06                                 F               2         First time derivative of First time derivative of Platform pitch tilt rotation DOF (internal DOF index = DOF_P), rad/s/s
         17   -5.801E-06                                 F               2         First time derivative of First time derivative of Platform yaw rotation DOF (internal DOF index = DOF_Y), rad/s/s
         18   -1.261E-03                                 F               2         First time derivative of First time derivative of 1st tower fore-aft bending mode DOF (internal DOF index = DOF_TFA1), m/s/s
         19    3.771E-04                                 F               2         First time derivative of First time derivative of 1st tower side-to-side bending mode DOF (internal DOF index = DOF_TSS1), m/s/s
         20    5.012E-06                                 F               2         First time derivative of First time derivative of 2nd tower fore-aft bending mode DOF (internal DOF index = DOF_TFA2), m/s/s
         21    9.501E-07                                 F               2         First time derivative of First time derivative of 2nd tower side-to-side bending mode DOF (internal DOF index = DOF_TSS2), m/s/s
         22   -1.575E-04                                 F               2         First time derivative of First time derivative of Variable speed generator DOF (internal DOF index = DOF_GeAz), rad/s/s

Order of inputs:
     Column   Operating Point                     Rotating Frame? Derivative Order Description
   ---------- ---------------                     --------------- ---------------- -----------
          1    4.286E+01                                 F               0         Blade 1 X force, node 1, N
          2    4.218E+01                                 F               0         Blade 1 Y force, node 1, N
          3   -1.882E+01                                 F               0         Blade 1 Z force, node 1, N
          4    1.897E+02                                 F               0         Blade 1 X force, node 2, N
          5    8.348E+01                                 F               0         Blade 1 Y force, node 2, N
          6   -5.759E+01                                 F               0         Blade 1 Z force, node 2, N
          7    2.529E+02                                 F               0         Blade 1 X force, node 3, N
          8    4.825E+01                                 F               0         Blade 1 Y force, node 3, N
          9   -6.106E+01                                 F               0         Blade 1 Z force, node 3, N
         10    3.362E+02                                 F               0         Blade 1 X force, node 4, N
         11    2.292E+01                                 F               0         Blade 1 Y force, node 4, N
         12   -7.090E+01                                 F               0         Blade 1 Z force, node 4, N
         13    4.195E+02                                 F               0         Blade 1 X force, node 5, N
         14   -2.409E+00                                 F               0         Blade 1 Y force, node 5, N
         15   -8.074E+01                                 F               0         Blade 1 Z force, node 5, N
         16    5.027E+02                                 F               0         Blade 1 X force, node 6, N
         17   -2.774E+01                                 F               0         Blade 1 Y force, node 6, N
         18   -9.058E+01                                 F               0         Blade 1 Z force, node 6, N
         19    5.860E+02                                 F               0         Blade 1 X force, node 7, N
         20   -5.306E+01                                 F               0         Blade 1 Y force, node 7, N
         21   -1.004E+02                                 F               0         Blade 1 Z force, node 7, N
         22    6.693E+02                                 F               0         Blade 1 X force, node 8, N
         23   -7.839E+01                                 F               0         Blade 1 Y force, node 8, N
         24   -1.103E+02                                 F               0         Blade 1 Z force, node 8, N
         25    7.526E+02                                 F               0         Blade 1 X force, node 9, N
         26   -1.037E+02                                 F               0         Blade 1 Y force, node 9, N
         27   -1.201E+02                                 F               0         Blade 1 Z force, node 9, N
         28    8.359E+02                                 F               0         Blade 1 X force, node 10, N
         29   -1.290E+02                                 F               0         Blade 1 Y force, node 10, N
         30   -1.299E+02                                 F               0         Blade 1 Z force, node 10, N
         31    9.192E+02                                 F               0         Blade 1 X force, node 11, N
         32   -1.544E+02                                 F               0         Blade 1 Y force, node 11, N
         33   -1.398E+02                                 F               0         Blade 1 Z force, node 11, N
         34    1.002E+03                                 F               0         Blade 1 X force, node 12, N
         35   -1.797E+02                                 F               0         Blade 1 Y force, node 12, N
         36   -1.496E+02                                 F               0         Blade 1 Z force, node 12, N
         37    1.086E+03                                 F               0         Blade 1 X force, node 13, N
         38   -2.050E+02                                 F               0         Blade 1 Y force, node 13, N
         39   -1.595E+02                                 F               0         Blade 1 Z force, node 13, N
         40    1.169E+03                                 F               0         Blade 1 X force, node 14, N
         41   -2.304E+02                                 F               0         Blade 1 Y force, node 14, N
         42   -1.693E+02                                 F               0         Blade 1 Z force, node 14, N
         43    1.252E+03                                 F               0         Blade 1 X force, node 15, N
         44   -2.557E+02                                 F               0         Blade 1 Y force, node 15, N
         45   -1.792E+02                                 F               0         Blade 1 Z force, node 15, N
         46    1.336E+03                                 F               0         Blade 1 X force, node 16, N
         47   -2.810E+02                                 F               0         Blade 1 Y force, node 16, N
         48   -1.890E+02                                 F               0         Blade 1 Z force, node 16, N
         49    1.646E+03                                 F               0         Blade 1 X force, node 17, N
         50   -3.537E+02                                 F               0         Blade 1 Y force, node 17, N
         51   -2.311E+02                                 F               0         Blade 1 Z force, node 17, N
         52    1.262E+03                                 F               0         Blade 1 X force, node 18, N
         53   -2.607E+02                                 F               0         Blade 1 Y force, node 18, N
         54   -1.797E+02                                 F               0         Blade 1 Z force, node 18, N
         55    1.555E+03                                 F               0         Blade 1 X force, node 19, N
         56   -3.036E+02                                 F               0         Blade 1 Y force, node 19, N
         57   -2.259E+02                                 F               0         Blade 1 Z force, node 19, N
         58    1.331E+03                                 F               0         Blade 1 X force, node 20, N
         59   -2.460E+02                                 F               0         Blade 1 Y force, node 20, N
         60   -1.968E+02                                 F               0         Blade 1 Z force, node 20, N
         61    1.974E+03                                 F               0         Blade 1 X force, node 21, N
         62   -3.420E+02                                 F               0         Blade 1 Y force, node 21, N
         63   -2.975E+02                                 F               0         Blade 1 Z force, node 21, N
         64    1.749E+03                                 F               0         Blade 1 X force, node 22, N
         65   -2.839E+02                                 F               0         Blade 1 Y force, node 22, N
         66   -2.685E+02                                 F               0         Blade 1 Z force, node 22, N
         67    1.803E+03                                 F               0         Blade 1 X force, node 23, N
         68   -2.755E+02                                 F               0         Blade 1 Y force, node 23, N
         69   -2.810E+02                                 F               0         Blade 1 Z force, node 23, N
         70    1.889E+03                                 F               0         Blade 1 X force, node 24, N
         71   -2.718E+02                                 F               0         Blade 1 Y force, node 24, N
         72   -2.986E+02                                 F               0         Blade 1 Z force, node 24, N
         73    1.942E+03                                 F               0         Blade 1 X force, node 25, N
         74   -2.631E+02                                 F               0         Blade 1 Y force, node 25, N
         75   -3.111E+02                                 F               0         Blade 1 Z force, node 25, N
         76    2.006E+03                                 F               0         Blade 1 X force, node 26, N
         77   -2.559E+02                                 F               0         Blade 1 Y force, node 26, N
         78   -3.253E+02                                 F               0         Blade 1 Z force, node 26, N
         79    2.411E+03                                 F               0         Blade 1 X force, node 27, N
         80   -2.887E+02                                 F               0         Blade 1 Y force, node 27, N
         81   -3.957E+02                                 F               0         Blade 1 Z force, node 27, N
         82    1.793E+03                                 F               0         Blade 1 X force, node 28, N
         83   -2.015E+02                                 F               0         Blade 1 Y force, node 28, N
         84   -2.974E+02                                 F               0         Blade 1 Z force, node 28, N
         85    2.198E+03                                 F               0         Blade 1 X force, node 29, N
         86   -2.342E+02                                 F               0         Blade 1 Y force, node 29, N
         87   -3.678E+02                                 F               0         Blade 1 Z force, node 29, N
         88    1.874E+03                                 F               0         Blade 1 X force, node 30, N
         89   -1.892E+02                                 F               0         Blade 1 Y force, node 30, N
         90   -3.162E+02                                 F               0         Blade 1 Z force, node 30, N
         91    2.713E+03                                 F               0         Blade 1 X force, node 31, N
         92   -2.571E+02                                 F               0         Blade 1 Y force, node 31, N
         93   -4.621E+02                                 F               0         Blade 1 Z force, node 31, N
         94    2.389E+03                                 F               0         Blade 1 X force, node 32, N
         95   -2.120E+02                                 F               0         Blade 1 Y force, node 32, N
         96   -4.104E+02                                 F               0         Blade 1 Z force, node 32, N
         97    2.452E+03                                 F               0         Blade 1 X force, node 33, N
         98   -2.046E+02                                 F               0         Blade 1 Y force, node 33, N
         99   -4.246E+02                                 F               0         Blade 1 Z force, node 33, N
        100    2.516E+03                                 F               0         Blade 1 X force, node 34, N
        101   -1.971E+02                                 F               0         Blade 1 Y force, node 34, N
        102   -4.388E+02                                 F               0         Blade 1 Z force, node 34, N
        103    2.580E+03                                 F               0         Blade 1 X force, node 35, N
        104   -1.896E+02                                 F               0         Blade 1 Y force, node 35, N
        105   -4.530E+02                                 F               0         Blade 1 Z force, node 35, N
        106    2.643E+03                                 F               0         Blade 1 X force, node 36, N
        107   -1.821E+02                                 F               0         Blade 1 Y force, node 36, N
        108   -4.672E+02                                 F               0         Blade 1 Z force, node 36, N
        109    3.167E+03                                 F               0         Blade 1 X force, node 37, N
        110   -2.034E+02                                 F               0         Blade 1 Y force, node 37, N
        111   -5.634E+02                                 F               0         Blade 1 Z force, node 37, N
        112    2.310E+03                                 F               0         Blade 1 X force, node 38, N
        113   -1.382E+02                                 F               0         Blade 1 Y force, node 38, N
        114   -4.135E+02                                 F               0         Blade 1 Z force, node 38, N
        115    2.834E+03                                 F               0         Blade 1 X force, node 39, N
        116   -1.596E+02                                 F               0         Blade 1 Y force, node 39, N
        117   -5.099E+02                                 F               0         Blade 1 Z force, node 39, N
        118    2.420E+03                                 F               0         Blade 1 X force, node 40, N
        119   -1.279E+02                                 F               0         Blade 1 Y force, node 40, N
        120   -4.373E+02                                 F               0         Blade 1 Z force, node 40, N
        121    3.441E+03                                 F               0         Blade 1 X force, node 41, N
        122   -1.687E+02                                 F               0         Blade 1 Y force, node 41, N
        123   -6.253E+02                                 F               0         Blade 1 Z force, node 41, N
        124    3.025E+03                                 F               0         Blade 1 X force, node 42, N
        125   -1.369E+02                                 F               0         Blade 1 Y force, node 42, N
        126   -5.526E+02                                 F               0         Blade 1 Z force, node 42, N
        127    3.089E+03                                 F               0         Blade 1 X force, node 43, N
        128   -1.293E+02                                 F               0         Blade 1 Y force, node 43, N
        129   -5.667E+02                                 F               0         Blade 1 Z force, node 43, N
        130    3.168E+03                                 F               0         Blade 1 X force, node 44, N
        131   -1.222E+02                                 F               0         Blade 1 Y force, node 44, N
        132   -5.839E+02                                 F               0         Blade 1 Z force, node 44, N
        133    3.198E+03                                 F               0         Blade 1 X force, node 45, N
        134   -1.134E+02                                 F               0         Blade 1 Y force, node 45, N
        135   -5.919E+02                                 F               0         Blade 1 Z force, node 45, N
        136    3.278E+03                                 F               0         Blade 1 X force, node 46, N
        137   -1.063E+02                                 F               0         Blade 1 Y force, node 46, N
        138   -6.092E+02                                 F               0         Blade 1 Z force, node 46, N
        139    3.928E+03                                 F               0         Blade 1 X force, node 47, N
        140   -1.153E+02                                 F               0         Blade 1 Y force, node 47, N
        141   -7.330E+02                                 F               0         Blade 1 Z force, node 47, N
        142    2.818E+03                                 F               0         Blade 1 X force, node 48, N
        143   -7.446E+01                                 F               0         Blade 1 Y force, node 48, N
        144   -5.279E+02                                 F               0         Blade 1 Z force, node 48, N
        145    3.467E+03                                 F               0         Blade 1 X force, node 49, N
        146   -8.335E+01                                 F               0         Blade 1 Y force, node 49, N
        147   -6.516E+02                                 F               0         Blade 1 Z force, node 49, N
        148    2.969E+03                                 F               0         Blade 1 X force, node 50, N
        149   -6.443E+01                                 F               0         Blade 1 Y force, node 50, N
        150   -5.596E+02                                 F               0         Blade 1 Z force, node 50, N
        151    4.155E+03                                 F               0         Blade 1 X force, node 51, N
        152   -7.925E+01                                 F               0         Blade 1 Y force, node 51, N
        153   -7.860E+02                                 F               0         Blade 1 Z force, node 51, N
        154    3.657E+03                                 F               0         Blade 1 X force, node 52, N
        155   -6.039E+01                                 F               0         Blade 1 Y force, node 52, N
        156   -6.942E+02                                 F               0         Blade 1 Z force, node 52, N
        157    3.721E+03                                 F               0         Blade 1 X force, node 53, N
        158   -5.277E+01                                 F               0         Blade 1 Y force, node 53, N
        159   -7.085E+02                                 F               0         Blade 1 Z force, node 53, N
        160    3.827E+03                                 F               0         Blade 1 X force, node 54, N
        161   -4.561E+01                                 F               0         Blade 1 Y force, node 54, N
        162   -7.307E+02                                 F               0         Blade 1 Z force, node 54, N
        163    3.807E+03                                 F               0         Blade 1 X force, node 55, N
        164   -3.703E+01                                 F               0         Blade 1 Y force, node 55, N
        165   -7.290E+02                                 F               0         Blade 1 Z force, node 55, N
        166    3.912E+03                                 F               0         Blade 1 X force, node 56, N
        167   -2.983E+01                                 F               0         Blade 1 Y force, node 56, N
        168   -7.512E+02                                 F               0         Blade 1 Z force, node 56, N
        169    4.695E+03                                 F               0         Blade 1 X force, node 57, N
        170   -2.553E+01                                 F               0         Blade 1 Y force, node 57, N
        171   -9.042E+02                                 F               0         Blade 1 Z force, node 57, N
        172    3.320E+03                                 F               0         Blade 1 X force, node 58, N
        173   -1.114E+01                                 F               0         Blade 1 Y force, node 58, N
        174   -6.410E+02                                 F               0         Blade 1 Z force, node 58, N
        175    4.103E+03                                 F               0         Blade 1 X force, node 59, N
        176   -6.819E+00                                 F               0         Blade 1 Y force, node 59, N
        177   -7.940E+02                                 F               0         Blade 1 Z force, node 59, N
        178    3.529E+03                                 F               0         Blade 1 X force, node 60, N
        179    6.968E-02                                 F               0         Blade 1 Y force, node 60, N
        180   -6.843E+02                                 F               0         Blade 1 Z force, node 60, N
        181    4.868E+03                                 F               0         Blade 1 X force, node 61, N
        182    9.352E+00                                 F               0         Blade 1 Y force, node 61, N
        183   -9.463E+02                                 F               0         Blade 1 Z force, node 61, N
        184    4.292E+03                                 F               0         Blade 1 X force, node 62, N