
Linearized model: Predictions were generated on 11-Jan-2024 at 12:32:35 using OpenFAST, compiled as a 64-bit application using single precision at commit v3.5.1
 linked with  NWTC Subroutine Library; ElastoDyn; InflowWind; AeroDyn; ServoDyn; HydroDyn; MoorDyn (v2.0.0, 2023-09-18)

Description from the FAST input file: CCT-9 Campign 4 model. Input files to be run with OpenFAST 3.5.0. GitHub branch from Lu Wang (https://github.com/luwang00/openfast/tree/dev) compiled on March 7, 2023.

Simulation information:
   Simulation time:                   506.4250 s
   Rotor Speed:                         0.7073 rad/s
   Azimuth:                             1.8023 rad
   Wind Speed:                          8.0000 m/s
   Number of continuous states:        22
   Number of discrete states:           0
   Number of constraint states:         0
   Number of inputs:                 1890
   Number of outputs:                  38
   Jacobians included in this file?    No

Order of continuous states:
   Row/Column Operating Point                     Rotating Frame? Derivative Order Description
   ---------- ---------------                     --------------- ---------------- -----------
          1    5.740E+00                                 F               2         Platform horizontal surge translation DOF (internal DOF index = DOF_Sg), m
          2   -4.448E-01                                 F               2         Platform horizontal sway translation DOF (internal DOF index = DOF_Sw), m
          3   -6.785E-02                                 F               2         Platform vertical heave translation DOF (internal DOF index = DOF_Hv), m
          4    4.334E-02                                 F               2         Platform roll tilt rotation DOF (internal DOF index = DOF_R), rad
          5    8.427E-02                                 F               2         Platform pitch tilt rotation DOF (internal DOF index = DOF_P), rad
          6    2.425E-03                                 F               2         Platform yaw rotation DOF (internal DOF index = DOF_Y), rad
          7    4.632E-01                                 F               2         1st tower fore-aft bending mode DOF (internal DOF index = DOF_TFA1), m
          8    1.677E-01                                 F               2         1st tower side-to-side bending mode DOF (internal DOF index = DOF_TSS1), m
          9    1.456E-03                                 F               2         2nd tower fore-aft bending mode DOF (internal DOF index = DOF_TFA2), m
         10    7.367E-05                                 F               2         2nd tower side-to-side bending mode DOF (internal DOF index = DOF_TSS2), m
         11    2.315E-01                                 F               2         Variable speed generator DOF (internal DOF index = DOF_GeAz), rad
         12   -5.285E-03                                 F               2         First time derivative of Platform horizontal surge translation DOF (internal DOF index = DOF_Sg), m/s
         13    3.044E-04                                 F               2         First time derivative of Platform horizontal sway translation DOF (internal DOF index = DOF_Sw), m/s
         14    4.210E-03                                 F               2         First time derivative of Platform vertical heave translation DOF (internal DOF index = DOF_Hv), m/s
         15    5.273E-05                                 F               2         First time derivative of Platform roll tilt rotation DOF (internal DOF index = DOF_R), rad/s
         16    1.373E-05                                 F               2         First time derivative of Platform pitch tilt rotation DOF (internal DOF index = DOF_P), rad/s
         17   -1.662E-05                                 F               2         First time derivative of Platform yaw rotation DOF (internal DOF index = DOF_Y), rad/s
         18   -1.461E-04                                 F               2         First time derivative of 1st tower fore-aft bending mode DOF (internal DOF index = DOF_TFA1), m/s
         19    8.644E-04                                 F               2         First time derivative of 1st tower side-to-side bending mode DOF (internal DOF index = DOF_TSS1), m/s
         20    1.640E-06                                 F               2         First time derivative of 2nd tower fore-aft bending mode DOF (internal DOF index = DOF_TFA2), m/s
         21   -5.793E-07                                 F               2         First time derivative of 2nd tower side-to-side bending mode DOF (internal DOF index = DOF_TSS2), m/s
         22    7.073E-01                                 F               2         First time derivative of Variable speed generator DOF (internal DOF index = DOF_GeAz), rad/s

Order of continuous state derivatives:
   Row/Column Operating Point                     Rotating Frame? Derivative Order Description
   ---------- ---------------                     --------------- ---------------- -----------
          1   -5.285E-03                                 F               2         First time derivative of Platform horizontal surge translation DOF (internal DOF index = DOF_Sg), m/s
          2    3.044E-04                                 F               2         First time derivative of Platform horizontal sway translation DOF (internal DOF index = DOF_Sw), m/s
          3    4.210E-03                                 F               2         First time derivative of Platform vertical heave translation DOF (internal DOF index = DOF_Hv), m/s
          4    5.273E-05                                 F               2         First time derivative of Platform roll tilt rotation DOF (internal DOF index = DOF_R), rad/s
          5    1.373E-05                                 F               2         First time derivative of Platform pitch tilt rotation DOF (internal DOF index = DOF_P), rad/s
          6   -1.662E-05                                 F               2         First time derivative of Platform yaw rotation DOF (internal DOF index = DOF_Y), rad/s
          7   -1.461E-04                                 F               2         First time derivative of 1st tower fore-aft bending mode DOF (internal DOF index = DOF_TFA1), m/s
          8    8.644E-04                                 F               2         First time derivative of 1st tower side-to-side bending mode DOF (internal DOF index = DOF_TSS1), m/s
          9    1.640E-06                                 F               2         First time derivative of 2nd tower fore-aft bending mode DOF (internal DOF index = DOF_TFA2), m/s
         10   -5.793E-07                                 F               2         First time derivative of 2nd tower side-to-side bending mode DOF (internal DOF index = DOF_TSS2), m/s
         11    7.073E-01                                 F               2         First time derivative of Variable speed generator DOF (internal DOF index = DOF_GeAz), rad/s
         12   -4.189E-06                                 F               2         First time derivative of First time derivative of Platform horizontal surge translation DOF (internal DOF index = DOF_Sg), m/s/s
         13   -5.386E-04                                 F               2         First time derivative of First time derivative of Platform horizontal sway translation DOF (internal DOF index = DOF_Sw), m/s/s
         14   -4.899E-04                                 F               2         First time derivative of First time derivative of Platform vertical heave translation DOF (internal DOF index = DOF_Hv), m/s/s
         15    3.774E-05                                 F               2         First time derivative of First time derivative of Platform roll tilt rotation DOF (internal DOF index = DOF_R), rad/s/s
         16    6.733E-06                                 F               2         First time derivative of First time derivative of Platform pitch tilt rotation DOF (internal DOF index = DOF_P), rad/s/s
         17   -1.591E-06                                 F               2         First time derivative of First time derivative of Platform yaw rotation DOF (internal DOF index = DOF_Y), rad/s/s
         18   -1.312E-03                                 F               2         First time derivative of First time derivative of 1st tower fore-aft bending mode DOF (internal DOF index = DOF_TFA1), m/s/s
         19   -2.606E-05                                 F               2         First time derivative of First time derivative of 1st tower side-to-side bending mode DOF (internal DOF index = DOF_TSS1), m/s/s
         20    4.282E-06                                 F               2         First time derivative of First time derivative of 2nd tower fore-aft bending mode DOF (internal DOF index = DOF_TFA2), m/s/s
         21    8.146E-07                                 F               2         First time derivative of First time derivative of 2nd tower side-to-side bending mode DOF (internal DOF index = DOF_TSS2), m/s/s
         22    1.141E-04                                 F               2         First time derivative of First time derivative of Variable speed generator DOF (internal DOF index = DOF_GeAz), rad/s/s

Order of inputs:
     Column   Operating Point                     Rotating Frame? Derivative Order Description
   ---------- ---------------                     --------------- ---------------- -----------
          1    6.543E+01                                 F               0         Blade 1 X force, node 1, N
          2   -2.197E+01                                 F               0         Blade 1 Y force, node 1, N
          3    6.793E+01                                 F               0         Blade 1 Z force, node 1, N
          4    2.352E+02                                 F               0         Blade 1 X force, node 2, N
          5   -3.690E+01                                 F               0         Blade 1 Y force, node 2, N
          6    9.367E+01                                 F               0         Blade 1 Z force, node 2, N
          7    2.798E+02                                 F               0         Blade 1 X force, node 3, N
          8   -2.488E+01                                 F               0         Blade 1 Y force, node 3, N
          9    4.340E+01                                 F               0         Blade 1 Z force, node 3, N
         10    3.499E+02                                 F               0         Blade 1 X force, node 4, N
         11   -1.771E+01                                 F               0         Blade 1 Y force, node 4, N
         12    6.325E+00                                 F               0         Blade 1 Z force, node 4, N
         13    4.201E+02                                 F               0         Blade 1 X force, node 5, N
         14   -1.054E+01                                 F               0         Blade 1 Y force, node 5, N
         15   -3.075E+01                                 F               0         Blade 1 Z force, node 5, N
         16    4.902E+02                                 F               0         Blade 1 X force, node 6, N
         17   -3.366E+00                                 F               0         Blade 1 Y force, node 6, N
         18   -6.783E+01                                 F               0         Blade 1 Z force, node 6, N
         19    5.603E+02                                 F               0         Blade 1 X force, node 7, N
         20    3.806E+00                                 F               0         Blade 1 Y force, node 7, N
         21   -1.049E+02                                 F               0         Blade 1 Z force, node 7, N
         22    6.304E+02                                 F               0         Blade 1 X force, node 8, N
         23    1.098E+01                                 F               0         Blade 1 Y force, node 8, N
         24   -1.420E+02                                 F               0         Blade 1 Z force, node 8, N
         25    7.006E+02                                 F               0         Blade 1 X force, node 9, N
         26    1.815E+01                                 F               0         Blade 1 Y force, node 9, N
         27   -1.791E+02                                 F               0         Blade 1 Z force, node 9, N
         28    7.707E+02                                 F               0         Blade 1 X force, node 10, N
         29    2.532E+01                                 F               0         Blade 1 Y force, node 10, N
         30   -2.161E+02                                 F               0         Blade 1 Z force, node 10, N
         31    8.408E+02                                 F               0         Blade 1 X force, node 11, N
         32    3.249E+01                                 F               0         Blade 1 Y force, node 11, N
         33   -2.532E+02                                 F               0         Blade 1 Z force, node 11, N
         34    9.110E+02                                 F               0         Blade 1 X force, node 12, N
         35    3.966E+01                                 F               0         Blade 1 Y force, node 12, N
         36   -2.903E+02                                 F               0         Blade 1 Z force, node 12, N
         37    9.811E+02                                 F               0         Blade 1 X force, node 13, N
         38    4.684E+01                                 F               0         Blade 1 Y force, node 13, N
         39   -3.274E+02                                 F               0         Blade 1 Z force, node 13, N
         40    1.051E+03                                 F               0         Blade 1 X force, node 14, N
         41    5.401E+01                                 F               0         Blade 1 Y force, node 14, N
         42   -3.645E+02                                 F               0         Blade 1 Z force, node 14, N
         43    1.121E+03                                 F               0         Blade 1 X force, node 15, N
         44    6.118E+01                                 F               0         Blade 1 Y force, node 15, N
         45   -4.015E+02                                 F               0         Blade 1 Z force, node 15, N
         46    1.191E+03                                 F               0         Blade 1 X force, node 16, N
         47    6.835E+01                                 F               0         Blade 1 Y force, node 16, N
         48   -4.386E+02                                 F               0         Blade 1 Z force, node 16, N
         49    1.465E+03                                 F               0         Blade 1 X force, node 17, N
         50    8.734E+01                                 F               0         Blade 1 Y force, node 17, N
         51   -5.511E+02                                 F               0         Blade 1 Z force, node 17, N
         52    1.133E+03                                 F               0         Blade 1 X force, node 18, N
         53    6.587E+01                                 F               0         Blade 1 Y force, node 18, N
         54   -4.202E+02                                 F               0         Blade 1 Z force, node 18, N
         55    1.411E+03                                 F               0         Blade 1 X force, node 19, N
         56    7.854E+01                                 F               0         Blade 1 Y force, node 19, N
         57   -5.109E+02                                 F               0         Blade 1 Z force, node 19, N
         58    1.220E+03                                 F               0         Blade 1 X force, node 20, N
         59    6.516E+01                                 F               0         Blade 1 Y force, node 20, N
         60   -4.319E+02                                 F               0         Blade 1 Z force, node 20, N
         61    1.829E+03                                 F               0         Blade 1 X force, node 21, N
         62    9.311E+01                                 F               0         Blade 1 Y force, node 21, N
         63   -6.311E+02                                 F               0         Blade 1 Z force, node 21, N
         64    1.638E+03                                 F               0         Blade 1 X force, node 22, N
         65    7.933E+01                                 F               0         Blade 1 Y force, node 22, N
         66   -5.506E+02                                 F               0         Blade 1 Z force, node 22, N
         67    1.703E+03                                 F               0         Blade 1 X force, node 23, N
         68    7.890E+01                                 F               0         Blade 1 Y force, node 23, N
         69   -5.597E+02                                 F               0         Blade 1 Z force, node 23, N
         70    1.799E+03                                 F               0         Blade 1 X force, node 24, N
         71    7.981E+01                                 F               0         Blade 1 Y force, node 24, N
         72   -5.785E+02                                 F               0         Blade 1 Z force, node 24, N
         73    1.863E+03                                 F               0         Blade 1 X force, node 25, N
         74    7.910E+01                                 F               0         Blade 1 Y force, node 25, N
         75   -5.865E+02                                 F               0         Blade 1 Z force, node 25, N
         76    1.937E+03                                 F               0         Blade 1 X force, node 26, N
         77    7.881E+01                                 F               0         Blade 1 Y force, node 26, N
         78   -5.976E+02                                 F               0         Blade 1 Z force, node 26, N
         79    2.344E+03                                 F               0         Blade 1 X force, node 27, N
         80    9.125E+01                                 F               0         Blade 1 Y force, node 27, N
         81   -7.084E+02                                 F               0         Blade 1 Z force, node 27, N
         82    1.754E+03                                 F               0         Blade 1 X force, node 28, N
         83    6.535E+01                                 F               0         Blade 1 Y force, node 28, N
         84   -5.195E+02                                 F               0         Blade 1 Z force, node 28, N
         85    2.160E+03                                 F               0         Blade 1 X force, node 29, N
         86    7.762E+01                                 F               0         Blade 1 Y force, node 29, N
         87   -6.297E+02                                 F               0         Blade 1 Z force, node 29, N
         88    1.850E+03                                 F               0         Blade 1 X force, node 30, N
         89    6.415E+01                                 F               0         Blade 1 Y force, node 30, N
         90   -5.310E+02                                 F               0         Blade 1 Z force, node 30, N
         91    2.693E+03                                 F               0         Blade 1 X force, node 31, N
         92    8.958E+01                                 F               0         Blade 1 Y force, node 31, N
         93   -7.592E+02                                 F               0         Blade 1 Z force, node 31, N
         94    2.383E+03                                 F               0         Blade 1 X force, node 32, N
         95    7.596E+01                                 F               0         Blade 1 Y force, node 32, N
         96   -6.599E+02                                 F               0         Blade 1 Z force, node 32, N
         97    2.456E+03                                 F               0         Blade 1 X force, node 33, N
         98    7.531E+01                                 F               0         Blade 1 Y force, node 33, N
         99   -6.696E+02                                 F               0         Blade 1 Z force, node 33, N
        100    2.530E+03                                 F               0         Blade 1 X force, node 34, N
        101    7.466E+01                                 F               0         Blade 1 Y force, node 34, N
        102   -6.793E+02                                 F               0         Blade 1 Z force, node 34, N
        103    2.604E+03                                 F               0         Blade 1 X force, node 35, N
        104    7.393E+01                                 F               0         Blade 1 Y force, node 35, N
        105   -6.887E+02                                 F               0         Blade 1 Z force, node 35, N
        106    2.676E+03                                 F               0         Blade 1 X force, node 36, N
        107    7.316E+01                                 F               0         Blade 1 Y force, node 36, N
        108   -6.978E+02                                 F               0         Blade 1 Z force, node 36, N
        109    3.218E+03                                 F               0         Blade 1 X force, node 37, N
        110    8.453E+01                                 F               0         Blade 1 Y force, node 37, N
        111   -8.267E+02                                 F               0         Blade 1 Z force, node 37, N
        112    2.355E+03                                 F               0         Blade 1 X force, node 38, N
        113    5.948E+01                                 F               0         Blade 1 Y force, node 38, N
        114   -5.965E+02                                 F               0         Blade 1 Z force, node 38, N
        115    2.897E+03                                 F               0         Blade 1 X force, node 39, N
        116    7.080E+01                                 F               0         Blade 1 Y force, node 39, N
        117   -7.253E+02                                 F               0         Blade 1 Z force, node 39, N
        118    2.479E+03                                 F               0         Blade 1 X force, node 40, N
        119    5.864E+01                                 F               0         Blade 1 Y force, node 40, N
        120   -6.137E+02                                 F               0         Blade 1 Z force, node 40, N
        121    3.535E+03                                 F               0         Blade 1 X force, node 41, N
        122    8.047E+01                                 F               0         Blade 1 Y force, node 41, N
        123   -8.639E+02                                 F               0         Blade 1 Z force, node 41, N
        124    3.116E+03                                 F               0         Blade 1 X force, node 42, N
        125    6.820E+01                                 F               0         Blade 1 Y force, node 42, N
        126   -7.517E+02                                 F               0         Blade 1 Z force, node 42, N
        127    3.189E+03                                 F               0         Blade 1 X force, node 43, N
        128    6.726E+01                                 F               0         Blade 1 Y force, node 43, N
        129   -7.601E+02                                 F               0         Blade 1 Z force, node 43, N
        130    3.278E+03                                 F               0         Blade 1 X force, node 44, N
        131    6.666E+01                                 F               0         Blade 1 Y force, node 44, N
        132   -7.726E+02                                 F               0         Blade 1 Z force, node 44, N
        133    3.316E+03                                 F               0         Blade 1 X force, node 45, N
        134    6.500E+01                                 F               0         Blade 1 Y force, node 45, N
        135   -7.728E+02                                 F               0         Blade 1 Z force, node 45, N
        136    3.405E+03                                 F               0         Blade 1 X force, node 46, N
        137    6.437E+01                                 F               0         Blade 1 Y force, node 46, N
        138   -7.851E+02                                 F               0         Blade 1 Z force, node 46, N
        139    4.088E+03                                 F               0         Blade 1 X force, node 47, N
        140    7.434E+01                                 F               0         Blade 1 Y force, node 47, N
        141   -9.321E+02                                 F               0         Blade 1 Z force, node 47, N
        142    2.938E+03                                 F               0         Blade 1 X force, node 48, N
        143    5.142E+01                                 F               0         Blade 1 Y force, node 48, N
        144   -6.627E+02                                 F               0         Blade 1 Z force, node 48, N
        145    3.621E+03                                 F               0         Blade 1 X force, node 49, N
        146    6.134E+01                                 F               0         Blade 1 Y force, node 49, N
        147   -8.094E+02                                 F               0         Blade 1 Z force, node 49, N
        148    3.104E+03                                 F               0         Blade 1 X force, node 50, N
        149    5.089E+01                                 F               0         Blade 1 Y force, node 50, N
        150   -6.879E+02                                 F               0         Blade 1 Z force, node 50, N
        151    4.352E+03                                 F               0         Blade 1 X force, node 51, N
        152    6.867E+01                                 F               0         Blade 1 Y force, node 51, N
        153   -9.548E+02                                 F               0         Blade 1 Z force, node 51, N
        154    3.837E+03                                 F               0         Blade 1 X force, node 52, N
        155    5.824E+01                                 F               0         Blade 1 Y force, node 52, N
        156   -8.335E+02                                 F               0         Blade 1 Z force, node 52, N
        157    3.909E+03                                 F               0         Blade 1 X force, node 53, N
        158    5.722E+01                                 F               0         Blade 1 Y force, node 53, N
        159   -8.417E+02                                 F               0         Blade 1 Z force, node 53, N
        160    4.026E+03                                 F               0         Blade 1 X force, node 54, N
        161    5.679E+01                                 F               0         Blade 1 Y force, node 54, N
        162   -8.591E+02                                 F               0         Blade 1 Z force, node 54, N
        163    4.010E+03                                 F               0         Blade 1 X force, node 55, N
        164    5.451E+01                                 F               0         Blade 1 Y force, node 55, N
        165   -8.484E+02                                 F               0         Blade 1 Z force, node 55, N
        166    4.126E+03                                 F               0         Blade 1 X force, node 56, N
        167    5.404E+01                                 F               0         Blade 1 Y force, node 56, N
        168   -8.656E+02                                 F               0         Blade 1 Z force, node 56, N
        169    4.958E+03                                 F               0         Blade 1 X force, node 57, N
        170    6.240E+01                                 F               0         Blade 1 Y force, node 57, N
        171   -1.031E+03                                 F               0         Blade 1 Z force, node 57, N
        172    3.509E+03                                 F               0         Blade 1 X force, node 58, N
        173    4.245E+01                                 F               0         Blade 1 Y force, node 58, N
        174   -7.237E+02                                 F               0         Blade 1 Z force, node 58, N
        175    4.342E+03                                 F               0         Blade 1 X force, node 59, N
        176    5.079E+01                                 F               0         Blade 1 Y force, node 59, N
        177   -8.891E+02                                 F               0         Blade 1 Z force, node 59, N
        178    3.737E+03                                 F               0         Blade 1 X force, node 60, N
        179    4.224E+01                                 F               0         Blade 1 Y force, node 60, N
        180   -7.601E+02                                 F               0         Blade 1 Z force, node 60, N
        181    5.161E+03                                 F               0         Blade 1 X force, node 61, N
        182    5.602E+01                                 F               0         Blade 1 Y force, node 61, N
        183   -1.041E+03                                 F               0         Blade 1 Z force, node 61, N
        184    4.555E+03                                 F               0         Blade 1 X force, node 62, N