
Linearized model: Predictions were generated on 11-Jan-2024 at 12:32:35 using OpenFAST, compiled as a 64-bit application using single precision at commit v3.5.1
 linked with  NWTC Subroutine Library; ElastoDyn; InflowWind; AeroDyn; ServoDyn; HydroDyn; MoorDyn (v2.0.0, 2023-09-18)

Description from the FAST input file: CCT-9 Campign 4 model. Input files to be run with OpenFAST 3.5.0. GitHub branch from Lu Wang (https://github.com/luwang00/openfast/tree/dev) compiled on March 7, 2023.

Simulation information:
   Simulation time:                   506.9250 s
   Rotor Speed:                         0.7074 rad/s
   Azimuth:                             2.1560 rad
   Wind Speed:                          8.0000 m/s
   Number of continuous states:         0
   Number of discrete states:           0
   Number of constraint states:         0
   Number of inputs:                  303
   Number of outputs:                   1
   Jacobians included in this file?    No

Order of inputs:
     Column   Operating Point                     Rotating Frame? Derivative Order Description
   ---------- ---------------                     --------------- ---------------- -----------
          1   -1.080E+01                                 F               0         X-component position of node 1 (hub), m
          2    0.000E+00                                 F               0         Y-component position of node 1 (hub), m
          3    1.497E+02                                 F               0         Z-component position of node 1 (hub), m
          4    7.466E+00                                 F               0         X-component position of node 2 (blade 1, node 1), m
          5   -1.160E+01                                 F               0         Y-component position of node 2 (blade 1, node 1), m
          6    1.467E+02                                 F               0         Z-component position of node 2 (blade 1, node 1), m
          7    7.325E+00                                 F               0         X-component position of node 3 (blade 1, node 2), m
          8   -1.268E+01                                 F               0         Y-component position of node 3 (blade 1, node 2), m
          9    1.459E+02                                 F               0         Z-component position of node 3 (blade 1, node 2), m
         10    5.398E+00                                 F               0         X-component position of node 4 (blade 1, node 3), m
         11   -2.735E+01                                 F               0         Y-component position of node 4 (blade 1, node 3), m
         12    1.354E+02                                 F               0         Z-component position of node 4 (blade 1, node 3), m
         13    4.987E+00                                 F               0         X-component position of node 5 (blade 1, node 4), m
         14   -3.048E+01                                 F               0         Y-component position of node 5 (blade 1, node 4), m
         15    1.332E+02                                 F               0         Z-component position of node 5 (blade 1, node 4), m
         16    4.576E+00                                 F               0         X-component position of node 6 (blade 1, node 5), m
         17   -3.360E+01                                 F               0         Y-component position of node 6 (blade 1, node 5), m
         18    1.309E+02                                 F               0         Z-component position of node 6 (blade 1, node 5), m
         19    4.166E+00                                 F               0         X-component position of node 7 (blade 1, node 6), m
         20   -3.673E+01                                 F               0         Y-component position of node 7 (blade 1, node 6), m
         21    1.287E+02                                 F               0         Z-component position of node 7 (blade 1, node 6), m
         22    3.755E+00                                 F               0         X-component position of node 8 (blade 1, node 7), m
         23   -3.986E+01                                 F               0         Y-component position of node 8 (blade 1, node 7), m
         24    1.265E+02                                 F               0         Z-component position of node 8 (blade 1, node 7), m
         25    3.345E+00                                 F               0         X-component position of node 9 (blade 1, node 8), m
         26   -4.298E+01                                 F               0         Y-component position of node 9 (blade 1, node 8), m
         27    1.242E+02                                 F               0         Z-component position of node 9 (blade 1, node 8), m
         28    2.934E+00                                 F               0         X-component position of node 10 (blade 1, node 9), m
         29   -4.611E+01                                 F               0         Y-component position of node 10 (blade 1, node 9), m
         30    1.220E+02                                 F               0         Z-component position of node 10 (blade 1, node 9), m
         31    2.523E+00                                 F               0         X-component position of node 11 (blade 1, node 10), m
         32   -4.923E+01                                 F               0         Y-component position of node 11 (blade 1, node 10), m
         33    1.197E+02                                 F               0         Z-component position of node 11 (blade 1, node 10), m
         34    2.113E+00                                 F               0         X-component position of node 12 (blade 1, node 11), m
         35   -5.236E+01                                 F               0         Y-component position of node 12 (blade 1, node 11), m
         36    1.175E+02                                 F               0         Z-component position of node 12 (blade 1, node 11), m
         37    1.702E+00                                 F               0         X-component position of node 13 (blade 1, node 12), m
         38   -5.549E+01                                 F               0         Y-component position of node 13 (blade 1, node 12), m
         39    1.153E+02                                 F               0         Z-component position of node 13 (blade 1, node 12), m
         40    1.292E+00                                 F               0         X-component position of node 14 (blade 1, node 13), m
         41   -5.861E+01                                 F               0         Y-component position of node 14 (blade 1, node 13), m
         42    1.130E+02                                 F               0         Z-component position of node 14 (blade 1, node 13), m
         43    8.811E-01                                 F               0         X-component position of node 15 (blade 1, node 14), m
         44   -6.174E+01                                 F               0         Y-component position of node 15 (blade 1, node 14), m
         45    1.108E+02                                 F               0         Z-component position of node 15 (blade 1, node 14), m
         46    4.704E-01                                 F               0         X-component position of node 16 (blade 1, node 15), m
         47   -6.486E+01                                 F               0         Y-component position of node 16 (blade 1, node 15), m
         48    1.085E+02                                 F               0         Z-component position of node 16 (blade 1, node 15), m
         49    5.983E-02                                 F               0         X-component position of node 17 (blade 1, node 16), m
         50   -6.799E+01                                 F               0         Y-component position of node 17 (blade 1, node 16), m
         51    1.063E+02                                 F               0         Z-component position of node 17 (blade 1, node 16), m
         52   -3.507E-01                                 F               0         X-component position of node 18 (blade 1, node 17), m
         53   -7.112E+01                                 F               0         Y-component position of node 18 (blade 1, node 17), m
         54    1.041E+02                                 F               0         Z-component position of node 18 (blade 1, node 17), m
         55   -7.613E-01                                 F               0         X-component position of node 19 (blade 1, node 18), m
         56   -7.424E+01                                 F               0         Y-component position of node 19 (blade 1, node 18), m
         57    1.018E+02                                 F               0         Z-component position of node 19 (blade 1, node 18), m
         58   -1.172E+00                                 F               0         X-component position of node 20 (blade 1, node 19), m
         59   -7.737E+01                                 F               0         Y-component position of node 20 (blade 1, node 19), m
         60    9.958E+01                                 F               0         Z-component position of node 20 (blade 1, node 19), m
         61   -1.583E+00                                 F               0         X-component position of node 21 (blade 1, node 20), m
         62   -8.049E+01                                 F               0         Y-component position of node 21 (blade 1, node 20), m
         63    9.734E+01                                 F               0         Z-component position of node 21 (blade 1, node 20), m
         64   -1.993E+00                                 F               0         X-component position of node 22 (blade 1, node 21), m
         65   -8.362E+01                                 F               0         Y-component position of node 22 (blade 1, node 21), m
         66    9.510E+01                                 F               0         Z-component position of node 22 (blade 1, node 21), m
         67   -2.404E+00                                 F               0         X-component position of node 23 (blade 1, node 22), m
         68   -8.675E+01                                 F               0         Y-component position of node 23 (blade 1, node 22), m
         69    9.286E+01                                 F               0         Z-component position of node 23 (blade 1, node 22), m
         70   -2.814E+00                                 F               0         X-component position of node 24 (blade 1, node 23), m
         71   -8.987E+01                                 F               0         Y-component position of node 24 (blade 1, node 23), m
         72    9.062E+01                                 F               0         Z-component position of node 24 (blade 1, node 23), m
         73   -3.225E+00                                 F               0         X-component position of node 25 (blade 1, node 24), m
         74   -9.300E+01                                 F               0         Y-component position of node 25 (blade 1, node 24), m
         75    8.838E+01                                 F               0         Z-component position of node 25 (blade 1, node 24), m
         76   -3.636E+00                                 F               0         X-component position of node 26 (blade 1, node 25), m
         77   -9.612E+01                                 F               0         Y-component position of node 26 (blade 1, node 25), m
         78    8.614E+01                                 F               0         Z-component position of node 26 (blade 1, node 25), m
         79   -4.046E+00                                 F               0         X-component position of node 27 (blade 1, node 26), m
         80   -9.925E+01                                 F               0         Y-component position of node 27 (blade 1, node 26), m
         81    8.390E+01                                 F               0         Z-component position of node 27 (blade 1, node 26), m
         82   -4.457E+00                                 F               0         X-component position of node 28 (blade 1, node 27), m
         83   -1.024E+02                                 F               0         Y-component position of node 28 (blade 1, node 27), m
         84    8.165E+01                                 F               0         Z-component position of node 28 (blade 1, node 27), m
         85   -4.805E+00                                 F               0         X-component position of node 29 (blade 1, node 28), m
         86   -1.050E+02                                 F               0         Y-component position of node 29 (blade 1, node 28), m
         87    7.976E+01                                 F               0         Z-component position of node 29 (blade 1, node 28), m
         88    7.576E+00                                 F               0         X-component position of node 30 (blade 2, node 1), m
         89   -2.061E+00                                 F               0         Y-component position of node 30 (blade 2, node 1), m
         90    1.477E+02                                 F               0         Z-component position of node 30 (blade 2, node 1), m
         91    7.461E+00                                 F               0         X-component position of node 31 (blade 2, node 2), m
         92   -8.409E-01                                 F               0         Y-component position of node 31 (blade 2, node 2), m
         93    1.472E+02                                 F               0         Z-component position of node 31 (blade 2, node 2), m
         94    5.894E+00                                 F               0         X-component position of node 32 (blade 2, node 3), m
         95    1.575E+01                                 F               0         Y-component position of node 32 (blade 2, node 3), m
         96    1.400E+02                                 F               0         Z-component position of node 32 (blade 2, node 3), m
         97    5.560E+00                                 F               0         X-component position of node 33 (blade 2, node 4), m
         98    1.929E+01                                 F               0         Y-component position of node 33 (blade 2, node 4), m
         99    1.385E+02                                 F               0         Z-component position of node 33 (blade 2, node 4), m
        100    5.227E+00                                 F               0         X-component position of node 34 (blade 2, node 5), m
        101    2.282E+01                                 F               0         Y-component position of node 34 (blade 2, node 5), m
        102    1.369E+02                                 F               0         Z-component position of node 34 (blade 2, node 5), m
        103    4.893E+00                                 F               0         X-component position of node 35 (blade 2, node 6), m
        104    2.636E+01                                 F               0         Y-component position of node 35 (blade 2, node 6), m
        105    1.354E+02                                 F               0         Z-component position of node 35 (blade 2, node 6), m
        106    4.559E+00                                 F               0         X-component position of node 36 (blade 2, node 7), m
        107    2.989E+01                                 F               0         Y-component position of node 36 (blade 2, node 7), m
        108    1.339E+02                                 F               0         Z-component position of node 36 (blade 2, node 7), m
        109    4.225E+00                                 F               0         X-component position of node 37 (blade 2, node 8), m
        110    3.343E+01                                 F               0         Y-component position of node 37 (blade 2, node 8), m
        111    1.323E+02                                 F               0         Z-component position of node 37 (blade 2, node 8), m
        112    3.891E+00                                 F               0         X-component position of node 38 (blade 2, node 9), m
        113    3.696E+01                                 F               0         Y-component position of node 38 (blade 2, node 9), m
        114    1.308E+02                                 F               0         Z-component position of node 38 (blade 2, node 9), m
        115    3.557E+00                                 F               0         X-component position of node 39 (blade 2, node 10), m
        116    4.050E+01                                 F               0         Y-component position of node 39 (blade 2, node 10), m
        117    1.293E+02                                 F               0         Z-component position of node 39 (blade 2, node 10), m
        118    3.223E+00                                 F               0         X-component position of node 40 (blade 2, node 11), m
        119    4.403E+01                                 F               0         Y-component position of node 40 (blade 2, node 11), m
        120    1.277E+02                                 F               0         Z-component position of node 40 (blade 2, node 11), m
        121    2.890E+00                                 F               0         X-component position of node 41 (blade 2, node 12), m
        122    4.757E+01                                 F               0         Y-component position of node 41 (blade 2, node 12), m
        123    1.262E+02                                 F               0         Z-component position of node 41 (blade 2, node 12), m
        124    2.556E+00                                 F               0         X-component position of node 42 (blade 2, node 13), m
        125    5.110E+01                                 F               0         Y-component position of node 42 (blade 2, node 13), m
        126    1.247E+02                                 F               0         Z-component position of node 42 (blade 2, node 13), m
        127    2.222E+00                                 F               0         X-component position of node 43 (blade 2, node 14), m
        128    5.464E+01                                 F               0         Y-component position of node 43 (blade 2, node 14), m
        129    1.231E+02                                 F               0         Z-component position of node 43 (blade 2, node 14), m
        130    1.888E+00                                 F               0         X-component position of node 44 (blade 2, node 15), m
        131    5.817E+01                                 F               0         Y-component position of node 44 (blade 2, node 15), m
        132    1.216E+02                                 F               0         Z-component position of node 44 (blade 2, node 15), m
        133    1.554E+00                                 F               0         X-component position of node 45 (blade 2, node 16), m
        134    6.171E+01                                 F               0         Y-component position of node 45 (blade 2, node 16), m
        135    1.201E+02                                 F               0         Z-component position of node 45 (blade 2, node 16), m
        136    1.220E+00                                 F               0         X-component position of node 46 (blade 2, node 17), m
        137    6.524E+01                                 F               0         Y-component position of node 46 (blade 2, node 17), m
        138    1.185E+02                                 F               0         Z-component position of node 46 (blade 2, node 17), m
        139    8.865E-01                                 F               0         X-component position of node 47 (blade 2, node 18), m
        140    6.878E+01                                 F               0         Y-component position of node 47 (blade 2, node 18), m
        141    1.170E+02                                 F               0         Z-component position of node 47 (blade 2, node 18), m
        142    5.526E-01                                 F               0         X-component position of node 48 (blade 2, node 19), m
        143    7.231E+01                                 F               0         Y-component position of node 48 (blade 2, node 19), m
        144    1.155E+02                                 F               0         Z-component position of node 48 (blade 2, node 19), m
        145    2.188E-01                                 F               0         X-component position of node 49 (blade 2, node 20), m
        146    7.585E+01                                 F               0         Y-component position of node 49 (blade 2, node 20), m
        147    1.139E+02                                 F               0         Z-component position of node 49 (blade 2, node 20), m
        148   -1.150E-01                                 F               0         X-component position of node 50 (blade 2, node 21), m
        149    7.938E+01                                 F               0         Y-component position of node 50 (blade 2, node 21), m
        150    1.124E+02                                 F               0         Z-component position of node 50 (blade 2, node 21), m
        151   -4.489E-01                                 F               0         X-component position of node 51 (blade 2, node 22), m
        152    8.292E+01                                 F               0         Y-component position of node 51 (blade 2, node 22), m
        153    1.109E+02                                 F               0         Z-component position of node 51 (blade 2, node 22), m
        154   -7.827E-01                                 F               0         X-component position of node 52 (blade 2, node 23), m
        155    8.645E+01                                 F               0         Y-component position of node 52 (blade 2, node 23), m
        156    1.093E+02                                 F               0         Z-component position of node 52 (blade 2, node 23), m
        157   -1.117E+00                                 F               0         X-component position of node 53 (blade 2, node 24), m
        158    8.999E+01                                 F               0         Y-component position of node 53 (blade 2, node 24), m
        159    1.078E+02                                 F               0         Z-component position of node 53 (blade 2, node 24), m
        160   -1.450E+00                                 F               0         X-component position of node 54 (blade 2, node 25), m
        161    9.352E+01                                 F               0         Y-component position of node 54 (blade 2, node 25), m
        162    1.063E+02                                 F               0         Z-component position of node 54 (blade 2, node 25), m
        163   -1.784E+00                                 F               0         X-component position of node 55 (blade 2, node 26), m
        164    9.706E+01                                 F               0         Y-component position of node 55 (blade 2, node 26), m
        165    1.047E+02                                 F               0         Z-component position of node 55 (blade 2, node 26), m
        166   -2.118E+00                                 F               0         X-component position of node 56 (blade 2, node 27), m
        167    1.006E+02                                 F               0         Y-component position of node 56 (blade 2, node 27), m
        168    1.032E+02                                 F               0         Z-component position of node 56 (blade 2, node 27), m
        169   -2.401E+00                                 F               0         X-component position of node 57 (blade 2, node 28), m
        170    1.036E+02                                 F               0         Y-component position of node 57 (blade 2, node 28), m
        171    1.019E+02                                 F               0         Z-component position of node 57 (blade 2, node 28), m
        172    9.121E+00                                 F               0         X-component position of node 58 (blade 3, node 1), m
        173   -7.711E+00                                 F               0         Y-component position of node 58 (blade 3, node 1), m
        174    1.553E+02                                 F               0         Z-component position of node 58 (blade 3, node 1), m
        175    9.378E+00                                 F               0         X-component position of node 59 (blade 3, node 2), m
        176   -7.852E+00                                 F               0         Y-component position of node 59 (blade 3, node 2), m
        177    1.566E+02                                 F               0         Z-component position of node 59 (blade 3, node 2), m
        178    1.287E+01                                 F               0         X-component position of node 60 (blade 3, node 3), m
        179   -9.772E+00                                 F               0         Y-component position of node 60 (blade 3, node 3), m
        180    1.743E+02                                 F               0         Z-component position of node 60 (blade 3, node 3), m
        181    1.362E+01                                 F               0         X-component position of node 61 (blade 3, node 4), m
        182   -1.018E+01                                 F               0         Y-component position of node 61 (blade 3, node 4), m
        183    1.781E+02                                 F               0         Z-component position of node 61 (blade 3, node 4), m
        184    1.436E+01                                 F               0         X-component position of node 62 (blade 3, node 5), m
        185   -1.059E+01                                 F               0         Y-component position of node 62 (blade 3, node 5), m
        186    1.819E+02                                 F               0         Z-component position of node 62 (blade 3, node 5), m
        187    1.511E+01                                 F               0         X-component position of node 63 (blade 3, node 6), m
        188   -1.100E+01                                 F               0         Y-component position of node 63 (blade 3, node 6), m
        189    1.857E+02                                 F               0         Z-component position of node 63 (blade 3, node 6), m
        190    1.585E+01                                 F               0         X-component position of node 64 (blade 3, node 7), m
        191   -1.141E+01                                 F               0         Y-component position of node 64 (blade 3, node 7), m
        192    1.894E+02                                 F               0         Z-component position of node 64 (blade 3, node 7), m
        193    1.659E+01                                 F               0         X-component position of node 65 (blade 3, node 8), m
        194   -1.182E+01                                 F               0         Y-component position of node 65 (blade 3, node 8), m
        195    1.932E+02                                 F               0         Z-component position of node 65 (blade 3, node 8), m
        196    1.734E+01                                 F               0         X-component position of node 66 (blade 3, node 9), m
        197   -1.223E+01                                 F               0         Y-component position of node 66 (blade 3, node 9), m
        198    1.970E+02                                 F               0         Z-component position of node 66 (blade 3, node 9), m
        199    1.808E+01                                 F               0         X-component position of node 67 (blade 3, node 10), m
        200   -1.264E+01                                 F               0         Y-component position of node 67 (blade 3, node 10), m
        201    2.007E+02                                 F               0         Z-component position of node 67 (blade 3, node 10), m
        202    1.883E+01                                 F               0         X-component position of node 68 (blade 3, node 11), m
        203   -1.305E+01                                 F               0         Y-component position of node 68 (blade 3, node 11), m
        204    2.045E+02                                 F               0         Z-component position of node 68 (blade 3, node 11), m
        205    1.957E+01                                 F               0         X-component position of node 69 (blade 3, node 12), m
        206   -1.346E+01                                 F               0         Y-component position of node 69 (blade 3, node 12), m
        207    2.083E+02                                 F               0         Z-component position of node 69 (blade 3, node 12), m
        208    2.032E+01                                 F               0         X-component position of node 70 (blade 3, node 13), m
        209   -1.386E+01                                 F               0         Y-component position of node 70 (blade 3, node 13), m
        210    2.121E+02                                 F               0         Z-component position of node 70 (blade 3, node 13), m
        211    2.106E+01                                 F               0         X-component position of node 71 (blade 3, node 14), m