
Linearized model: Predictions were generated on 11-Jan-2024 at 12:32:35 using OpenFAST, compiled as a 64-bit application using single precision at commit v3.5.1
 linked with  NWTC Subroutine Library; ElastoDyn; InflowWind; AeroDyn; ServoDyn; HydroDyn; MoorDyn (v2.0.0, 2023-09-18)

Description from the FAST input file: CCT-9 Campign 4 model. Input files to be run with OpenFAST 3.5.0. GitHub branch from Lu Wang (https://github.com/luwang00/openfast/tree/dev) compiled on March 7, 2023.

Simulation information:
   Simulation time:                   503.7250 s
   Rotor Speed:                         0.7074 rad/s
   Azimuth:                             6.1758 rad
   Wind Speed:                          8.0000 m/s
   Number of continuous states:         0
   Number of discrete states:           0
   Number of constraint states:         0
   Number of inputs:                 1746
   Number of outputs:                   4
   Jacobians included in this file?    No

Order of inputs:
     Column   Operating Point                     Rotating Frame? Derivative Order Description
   ---------- ---------------                     --------------- ---------------- -----------
          1    7.293E+00                                 F               0         Tower X translation displacement, node 1, m
          2   -1.236E+00                                 F               0         Tower Y translation displacement, node 1, m
          3   -1.612E-01                                 F               0         Tower Z translation displacement, node 1, m
          4    8.336E+00                                 F               0         Tower X translation displacement, node 2, m
          5   -1.769E+00                                 F               0         Tower Y translation displacement, node 2, m
          6   -2.169E-01                                 F               0         Tower Z translation displacement, node 2, m
          7    9.395E+00                                 F               0         Tower X translation displacement, node 3, m
          8   -2.307E+00                                 F               0         Tower Y translation displacement, node 3, m
          9   -2.742E-01                                 F               0         Tower Z translation displacement, node 3, m
         10    1.047E+01                                 F               0         Tower X translation displacement, node 4, m
         11   -2.849E+00                                 F               0         Tower Y translation displacement, node 4, m
         12   -3.326E-01                                 F               0         Tower Z translation displacement, node 4, m
         13    1.155E+01                                 F               0         Tower X translation displacement, node 5, m
         14   -3.395E+00                                 F               0         Tower Y translation displacement, node 5, m
         15   -3.920E-01                                 F               0         Tower Z translation displacement, node 5, m
         16    1.263E+01                                 F               0         Tower X translation displacement, node 6, m
         17   -3.944E+00                                 F               0         Tower Y translation displacement, node 6, m
         18   -4.522E-01                                 F               0         Tower Z translation displacement, node 6, m
         19    1.373E+01                                 F               0         Tower X translation displacement, node 7, m
         20   -4.495E+00                                 F               0         Tower Y translation displacement, node 7, m
         21   -5.129E-01                                 F               0         Tower Z translation displacement, node 7, m
         22    1.482E+01                                 F               0         Tower X translation displacement, node 8, m
         23   -5.047E+00                                 F               0         Tower Y translation displacement, node 8, m
         24   -5.741E-01                                 F               0         Tower Z translation displacement, node 8, m
         25    1.592E+01                                 F               0         Tower X translation displacement, node 9, m
         26   -5.602E+00                                 F               0         Tower Y translation displacement, node 9, m
         27   -6.356E-01                                 F               0         Tower Z translation displacement, node 9, m
         28    1.702E+01                                 F               0         Tower X translation displacement, node 10, m
         29   -6.157E+00                                 F               0         Tower Y translation displacement, node 10, m
         30   -6.972E-01                                 F               0         Tower Z translation displacement, node 10, m
         31    1.812E+01                                 F               0         Tower X translation displacement, node 11, m
         32   -6.713E+00                                 F               0         Tower Y translation displacement, node 11, m
         33   -7.590E-01                                 F               0         Tower Z translation displacement, node 11, m
         34    9.965E-01,  4.256E-03, -8.381E-02         F               0         Tower X orientation angle, node 1, rad
         35   -6.330E-04,  9.991E-01,  4.321E-02         F               0         Tower Y orientation angle, node 1, rad
         36    8.392E-02, -4.300E-02,  9.955E-01         F               0         Tower Z orientation angle, node 1, rad
         37    9.964E-01,  4.309E-03, -8.502E-02         F               0         Tower X orientation angle, node 2, rad
         38   -6.003E-04,  9.990E-01,  4.359E-02         F               0         Tower Y orientation angle, node 2, rad
         39    8.513E-02, -4.338E-02,  9.954E-01         F               0         Tower Z orientation angle, node 2, rad
         40    9.963E-01,  4.354E-03, -8.606E-02         F               0         Tower X orientation angle, node 3, rad
         41   -5.705E-04,  9.990E-01,  4.394E-02         F               0         Tower Y orientation angle, node 3, rad
         42    8.617E-02, -4.373E-02,  9.953E-01         F               0         Tower Z orientation angle, node 3, rad
         43    9.962E-01,  4.392E-03, -8.692E-02         F               0         Tower X orientation angle, node 4, rad
         44   -5.443E-04,  9.990E-01,  4.424E-02         F               0         Tower Y orientation angle, node 4, rad
         45    8.703E-02, -4.402E-02,  9.952E-01         F               0         Tower Z orientation angle, node 4, rad
         46    9.961E-01,  4.422E-03, -8.761E-02         F               0         Tower X orientation angle, node 5, rad
         47   -5.216E-04,  9.990E-01,  4.450E-02         F               0         Tower Y orientation angle, node 5, rad
         48    8.772E-02, -4.428E-02,  9.952E-01         F               0         Tower Z orientation angle, node 5, rad
         49    9.961E-01,  4.446E-03, -8.813E-02         F               0         Tower X orientation angle, node 6, rad
         50   -5.026E-04,  9.990E-01,  4.472E-02         F               0         Tower Y orientation angle, node 6, rad
         51    8.824E-02, -4.450E-02,  9.951E-01         F               0         Tower Z orientation angle, node 6, rad
         52    9.961E-01,  4.463E-03, -8.850E-02         F               0         Tower X orientation angle, node 7, rad
         53   -4.873E-04,  9.990E-01,  4.489E-02         F               0         Tower Y orientation angle, node 7, rad
         54    8.861E-02, -4.467E-02,  9.951E-01         F               0         Tower Z orientation angle, node 7, rad
         55    9.960E-01,  4.474E-03, -8.876E-02         F               0         Tower X orientation angle, node 8, rad
         56   -4.754E-04,  9.990E-01,  4.502E-02         F               0         Tower Y orientation angle, node 8, rad
         57    8.887E-02, -4.480E-02,  9.950E-01         F               0         Tower Z orientation angle, node 8, rad
         58    9.960E-01,  4.482E-03, -8.892E-02         F               0         Tower X orientation angle, node 9, rad
         59   -4.666E-04,  9.990E-01,  4.512E-02         F               0         Tower Y orientation angle, node 9, rad
         60    8.903E-02, -4.490E-02,  9.950E-01         F               0         Tower Z orientation angle, node 9, rad
         61    9.960E-01,  4.486E-03, -8.901E-02         F               0         Tower X orientation angle, node 10, rad
         62   -4.610E-04,  9.990E-01,  4.519E-02         F               0         Tower Y orientation angle, node 10, rad
         63    8.912E-02, -4.497E-02,  9.950E-01         F               0         Tower Z orientation angle, node 10, rad
         64    9.960E-01,  4.488E-03, -8.905E-02         F               0         Tower X orientation angle, node 11, rad
         65   -4.578E-04,  9.990E-01,  4.522E-02         F               0         Tower Y orientation angle, node 11, rad
         66    8.916E-02, -4.500E-02,  9.950E-01         F               0         Tower Z orientation angle, node 11, rad
         67   -4.783E-03                                 F               0         Tower X translation velocity, node 1, m/s
         68    1.252E-03                                 F               0         Tower Y translation velocity, node 1, m/s
         69    3.930E-03                                 F               0         Tower Z translation velocity, node 1, m/s
         70   -4.693E-03                                 F               0         Tower X translation velocity, node 2, m/s
         71    1.383E-03                                 F               0         Tower Y translation velocity, node 2, m/s
         72    3.928E-03                                 F               0         Tower Z translation velocity, node 2, m/s
         73   -4.609E-03                                 F               0         Tower X translation velocity, node 3, m/s
         74    1.508E-03                                 F               0         Tower Y translation velocity, node 3, m/s
         75    3.926E-03                                 F               0         Tower Z translation velocity, node 3, m/s
         76   -4.528E-03                                 F               0         Tower X translation velocity, node 4, m/s
         77    1.630E-03                                 F               0         Tower Y translation velocity, node 4, m/s
         78    3.924E-03                                 F               0         Tower Z translation velocity, node 4, m/s
         79   -4.451E-03                                 F               0         Tower X translation velocity, node 5, m/s
         80    1.749E-03                                 F               0         Tower Y translation velocity, node 5, m/s
         81    3.923E-03                                 F               0         Tower Z translation velocity, node 5, m/s
         82   -4.377E-03                                 F               0         Tower X translation velocity, node 6, m/s
         83    1.864E-03                                 F               0         Tower Y translation velocity, node 6, m/s
         84    3.921E-03                                 F               0         Tower Z translation velocity, node 6, m/s
         85   -4.304E-03                                 F               0         Tower X translation velocity, node 7, m/s
         86    1.976E-03                                 F               0         Tower Y translation velocity, node 7, m/s
         87    3.920E-03                                 F               0         Tower Z translation velocity, node 7, m/s
         88   -4.234E-03                                 F               0         Tower X translation velocity, node 8, m/s
         89    2.085E-03                                 F               0         Tower Y translation velocity, node 8, m/s
         90    3.919E-03                                 F               0         Tower Z translation velocity, node 8, m/s
         91   -4.165E-03                                 F               0         Tower X translation velocity, node 9, m/s
         92    2.192E-03                                 F               0         Tower Y translation velocity, node 9, m/s
         93    3.917E-03                                 F               0         Tower Z translation velocity, node 9, m/s
         94   -4.098E-03                                 F               0         Tower X translation velocity, node 10, m/s
         95    2.298E-03                                 F               0         Tower Y translation velocity, node 10, m/s
         96    3.916E-03                                 F               0         Tower Z translation velocity, node 10, m/s
         97   -4.031E-03                                 F               0         Tower X translation velocity, node 11, m/s
         98    2.402E-03                                 F               0         Tower Y translation velocity, node 11, m/s
         99    3.915E-03                                 F               0         Tower Z translation velocity, node 11, m/s
        100    1.887E+01                                 F               0         Hub X translation displacement, node 1, m
        101   -7.114E+00                                 F               0         Hub Y translation displacement, node 1, m
        102    1.636E-01                                 F               0         Hub Z translation displacement, node 1, m
        103    9.812E-01,  9.167E-03, -1.926E-01         F               0         Hub X orientation angle, node 1, rad
        104   -2.111E-02,  9.980E-01, -6.005E-02         F               0         Hub Y orientation angle, node 1, rad
        105    1.916E-01,  6.299E-02,  9.794E-01         F               0         Hub Z orientation angle, node 1, rad
        106    6.941E-01                                 F               0         Hub X rotation velocity, node 1, rad/s
        107    6.490E-03                                 F               0         Hub Y rotation velocity, node 1, rad/s
        108   -1.362E-01                                 F               0         Hub Z rotation velocity, node 1, rad/s
        109    9.814E-01, -2.044E-02, -1.907E-01         F               0         Blade root 1 X orientation angle, node 1, rad
        110    8.010E-03,  9.978E-01, -6.574E-02         F               0         Blade root 1 Y orientation angle, node 1, rad
        111    1.916E-01,  6.299E-02,  9.794E-01         F               0         Blade root 1 Z orientation angle, node 1, rad
        112    9.756E-01,  2.235E-02, -2.185E-01         F               0         Blade root 2 X orientation angle, node 1, rad
        113    2.055E-01, -4.440E-01,  8.722E-01         F               0         Blade root 2 Y orientation angle, node 1, rad
        114   -7.753E-02, -8.958E-01, -4.377E-01         F               0         Blade root 2 Z orientation angle, node 1, rad
        115    9.854E-01,  2.558E-02, -1.682E-01         F               0         Blade root 3 X orientation angle, node 1, rad
        116   -1.262E-01, -5.530E-01, -8.235E-01         F               0         Blade root 3 Y orientation angle, node 1, rad
        117   -1.141E-01,  8.328E-01, -5.417E-01         F               0         Blade root 3 Z orientation angle, node 1, rad
        118    1.935E+01                                 F               0         Blade 1 X translation displacement, node 1, m
        119   -6.765E+00                                 F               0         Blade 1 Y translation displacement, node 1, m
        120    8.002E-02                                 F               0         Blade 1 Z translation displacement, node 1, m
        121    1.947E+01                                 F               0         Blade 1 X translation displacement, node 2, m
        122   -6.681E+00                                 F               0         Blade 1 Y translation displacement, node 2, m
        123    5.989E-02                                 F               0         Blade 1 Z translation displacement, node 2, m
        124    2.105E+01                                 F               0         Blade 1 X translation displacement, node 3, m
        125   -5.538E+00                                 F               0         Blade 1 Y translation displacement, node 3, m
        126   -2.138E-01                                 F               0         Blade 1 Z translation displacement, node 3, m
        127    2.138E+01                                 F               0         Blade 1 X translation displacement, node 4, m
        128   -5.294E+00                                 F               0         Blade 1 Y translation displacement, node 4, m
        129   -2.721E-01                                 F               0         Blade 1 Z translation displacement, node 4, m
        130    2.172E+01                                 F               0         Blade 1 X translation displacement, node 5, m
        131   -5.051E+00                                 F               0         Blade 1 Y translation displacement, node 5, m
        132   -3.304E-01                                 F               0         Blade 1 Z translation displacement, node 5, m
        133    2.206E+01                                 F               0         Blade 1 X translation displacement, node 6, m
        134   -4.807E+00                                 F               0         Blade 1 Y translation displacement, node 6, m
        135   -3.888E-01                                 F               0         Blade 1 Z translation displacement, node 6, m
        136    2.239E+01                                 F               0         Blade 1 X translation displacement, node 7, m
        137   -4.563E+00                                 F               0         Blade 1 Y translation displacement, node 7, m
        138   -4.471E-01                                 F               0         Blade 1 Z translation displacement, node 7, m
        139    2.273E+01                                 F               0         Blade 1 X translation displacement, node 8, m
        140   -4.320E+00                                 F               0         Blade 1 Y translation displacement, node 8, m
        141   -5.054E-01                                 F               0         Blade 1 Z translation displacement, node 8, m
        142    2.307E+01                                 F               0         Blade 1 X translation displacement, node 9, m
        143   -4.076E+00                                 F               0         Blade 1 Y translation displacement, node 9, m
        144   -5.637E-01                                 F               0         Blade 1 Z translation displacement, node 9, m
        145    2.340E+01                                 F               0         Blade 1 X translation displacement, node 10, m
        146   -3.832E+00                                 F               0         Blade 1 Y translation displacement, node 10, m
        147   -6.220E-01                                 F               0         Blade 1 Z translation displacement, node 10, m
        148    2.374E+01                                 F               0         Blade 1 X translation displacement, node 11, m
        149   -3.589E+00                                 F               0         Blade 1 Y translation displacement, node 11, m
        150   -6.803E-01                                 F               0         Blade 1 Z translation displacement, node 11, m
        151    2.408E+01                                 F               0         Blade 1 X translation displacement, node 12, m
        152   -3.345E+00                                 F               0         Blade 1 Y translation displacement, node 12, m
        153   -7.387E-01                                 F               0         Blade 1 Z translation displacement, node 12, m
        154    2.442E+01                                 F               0         Blade 1 X translation displacement, node 13, m
        155   -3.102E+00                                 F               0         Blade 1 Y translation displacement, node 13, m
        156   -7.970E-01                                 F               0         Blade 1 Z translation displacement, node 13, m
        157    2.475E+01                                 F               0         Blade 1 X translation displacement, node 14, m
        158   -2.858E+00                                 F               0         Blade 1 Y translation displacement, node 14, m
        159   -8.553E-01                                 F               0         Blade 1 Z translation displacement, node 14, m
        160    2.509E+01                                 F               0         Blade 1 X translation displacement, node 15, m
        161   -2.614E+00                                 F               0         Blade 1 Y translation displacement, node 15, m
        162   -9.136E-01                                 F               0         Blade 1 Z translation displacement, node 15, m
        163    2.543E+01                                 F               0         Blade 1 X translation displacement, node 16, m
        164   -2.371E+00                                 F               0         Blade 1 Y translation displacement, node 16, m
        165   -9.719E-01                                 F               0         Blade 1 Z translation displacement, node 16, m
        166    2.576E+01                                 F               0         Blade 1 X translation displacement, node 17, m
        167   -2.127E+00                                 F               0         Blade 1 Y translation displacement, node 17, m
        168   -1.030E+00                                 F               0         Blade 1 Z translation displacement, node 17, m
        169    2.610E+01                                 F               0         Blade 1 X translation displacement, node 18, m
        170   -1.883E+00                                 F               0         Blade 1 Y translation displacement, node 18, m
        171   -1.089E+00                                 F               0         Blade 1 Z translation displacement, node 18, m
        172    2.644E+01                                 F               0         Blade 1 X translation displacement, node 19, m
        173   -1.640E+00                                 F               0         Blade 1 Y translation displacement, node 19, m
        174   -1.147E+00                                 F               0         Blade 1 Z translation displacement, node 19, m
        175    2.677E+01                                 F               0         Blade 1 X translation displacement, node 20, m
        176   -1.396E+00                                 F               0         Blade 1 Y translation displacement, node 20, m
        177   -1.205E+00                                 F               0         Blade 1 Z translation displacement, node 20, m
        178    2.711E+01                                 F               0         Blade 1 X translation displacement, node 21, m
        179   -1.152E+00                                 F               0         Blade 1 Y translation displacement, node 21, m
        180   -1.263E+00                                 F               0         Blade 1 Z translation displacement, node 21, m
        181    2.745E+01                                 F               0         Blade 1 X translation displacement, node 22, m
        182   -9.088E-01                                 F               0         Blade 1 Y translation displacement, node 22, m
        183   -1.322E+00                                 F               0         Blade 1 Z translation displacement, node 22, m
        184    2.778E+01                                 F               0         Blade 1 X translation displacement, node 23, m
        185   -6.651E-01                                 F               0         Blade 1 Y translation displacement, node 23, m
        186   -1.380E+00                                 F               0         Blade 1 Z translation displacement, node 23, m
        187    2.812E+01                                 F               0         Blade 1 X translation displacement, node 24, m
        188   -4.215E-01                                 F               0         Blade 1 Y translation displacement, node 24, m
        189   -1.438E+00                                 F               0         Blade 1 Z translation displacement, node 24, m
        190    2.846E+01                                 F               0         Blade 1 X translation displacement, node 25, m
        191   -1.779E-01                                 F               0         Blade 1 Y translation displacement, node 25, m
        192   -1.497E+00                                 F               0         Blade 1 Z translation displacement, node 25, m
        193    2.879E+01                                 F               0         Blade 1 X translation displacement, node 26, m
        194    6.579E-02                                 F               0         Blade 1 Y translation displacement, node 26, m
        195   -1.555E+00                                 F               0         Blade 1 Z translation displacement, node 26, m
        196    2.913E+01                                 F               0         Blade 1 X translation displacement, node 27, m
        197    3.094E-01                                 F               0         Blade 1 Y translation displacement, node 27, m
        198   -1.613E+00                                 F               0         Blade 1 Z translation displacement, node 27, m
        199    2.942E+01                                 F               0         Blade 1 X translation displacement, node 28, m
        200    5.160E-01                                 F               0         Blade 1 Y translation displacement, node 28, m
        201   -1.663E+00                                 F               0         Blade 1 Z translation displacement, node 28, m
        202    8.698E-01, -4.732E-01, -1.397E-01         F               0         Blade 1 X orientation angle, node 1, rad
        203    4.547E-01,  8.787E-01, -1.455E-01         F               0         Blade 1 Y orientation angle, node 1, rad
        204    1.916E-01,  6.299E-02,  9.794E-01         F               0         Blade 1 Z orientation angle, node 1, rad
        205    8.698E-01, -4.732E-01, -1.397E-01         F               0         Blade 1 X orientation angle, node 2, rad
        206    4.547E-01,  8.787E-01, -1.455E-01         F               0         Blade 1 Y orientation angle, node 2, rad
        207    1.916E-01,  6.299E-02,  9.794E-01         F               0         Blade 1 Z orientation angle, node 2, rad
        208    9.528E-01, -2.515E-01, -1.702E-01         F               0         Blade 1 X orientation angle, node 3, rad
        209    2.356E-01,  9.658E-01, -1.082E-01         F               0         Blade 1 Y orientation angle, node 3, rad
        210    1.916E-01,  6.299E-02,  9.794E-01         F               0         Blade 1 Z orientation angle, node 3, rad
        211    9.619E-01, -2.105E-01, -1.747E-01         F               0         Blade 1 X orientation angle, node 4, rad
        212    1.951E-01,  9.756E-01, -1.009E-01         F               0         Blade 1 Y orientation angle, node 4, rad
        213    1.916E-01,  6.299E-02,  9.794E-01         F               0         Blade 1 Z orientation angle, node 4, rad
        214    9.678E-01, -1.780E-01, -1.779E-01         F               0         Blade 1 X orientation angle, node 5, rad
        215    1.631E-01,  9.820E-01, -9.507E-02         F               0         Blade 1 Y orientation angle, node 5, rad
        216    1.916E-01,  6.299E-02,  9.794E-01         F               0         Blade 1 Z orientation angle, node 5, rad
        217    9.718E-01, -1.519E-01, -1.804E-01         F               0         Blade 1 X orientation angle, node 6, rad
        218    1.374E-01,  9.864E-01, -9.032E-02         F               0         Blade 1 Y orientation angle, node 6, rad
        219    1.916E-01,  6.299E-02,  9.794E-01         F               0         Blade 1 Z orientation angle, node 6, rad
        220    9.746E-01, -1.303E-01, -1.823E-01         F               0         Blade 1 X orientation angle, node 7, rad
        221    1.162E-01,  9.895E-01, -8.637E-02         F               0         Blade 1 Y orientation angle, node 7, rad
        222    1.916E-01,  6.299E-02,  9.794E-01         F               0         Blade 1 Z orientation angle, node 7, rad
        223    9.765E-01, -1.124E-01, -1.838E-01         F               0         Blade 1 X orientation angle, node 8, rad
        224    9.846E-02,  9.917E-01, -8.304E-02         F               0         Blade 1 Y orientation angle, node 8, rad
        225    1.916E-01,  6.299E-02,  9.794E-01         F               0         Blade 1 Z orientation angle, node 8, rad
        226    9.779E-01, -9.711E-02, -1.851E-01         F               0         Blade 1 X orientation angle, node 9, rad
        227    8.345E-02,  9.933E-01, -8.021E-02         F               0         Blade 1 Y orientation angle, node 9, rad