
Linearized model: Predictions were generated on 11-Jan-2024 at 12:32:35 using OpenFAST, compiled as a 64-bit application using single precision at commit v3.5.1
 linked with  NWTC Subroutine Library; ElastoDyn; InflowWind; AeroDyn; ServoDyn; HydroDyn; MoorDyn (v2.0.0, 2023-09-18)

Description from the FAST input file: CCT-9 Campign 4 model. Input files to be run with OpenFAST 3.5.0. GitHub branch from Lu Wang (https://github.com/luwang00/openfast/tree/dev) compiled on March 7, 2023.

Simulation information:
   Simulation time:                   506.6750 s
   Rotor Speed:                         0.7073 rad/s
   Azimuth:                             1.9792 rad
   Wind Speed:                          8.0000 m/s
   Number of continuous states:         0
   Number of discrete states:           0
   Number of constraint states:         0
   Number of inputs:                 1746
   Number of outputs:                   4
   Jacobians included in this file?    No

Order of inputs:
     Column   Operating Point                     Rotating Frame? Derivative Order Description
   ---------- ---------------                     --------------- ---------------- -----------
          1    7.278E+00                                 F               0         Tower X translation displacement, node 1, m
          2   -1.234E+00                                 F               0         Tower Y translation displacement, node 1, m
          3   -1.486E-01                                 F               0         Tower Z translation displacement, node 1, m
          4    8.322E+00                                 F               0         Tower X translation displacement, node 2, m
          5   -1.768E+00                                 F               0         Tower Y translation displacement, node 2, m
          6   -2.044E-01                                 F               0         Tower Z translation displacement, node 2, m
          7    9.381E+00                                 F               0         Tower X translation displacement, node 3, m
          8   -2.307E+00                                 F               0         Tower Y translation displacement, node 3, m
          9   -2.617E-01                                 F               0         Tower Z translation displacement, node 3, m
         10    1.045E+01                                 F               0         Tower X translation displacement, node 4, m
         11   -2.851E+00                                 F               0         Tower Y translation displacement, node 4, m
         12   -3.202E-01                                 F               0         Tower Z translation displacement, node 4, m
         13    1.153E+01                                 F               0         Tower X translation displacement, node 5, m
         14   -3.397E+00                                 F               0         Tower Y translation displacement, node 5, m
         15   -3.796E-01                                 F               0         Tower Z translation displacement, node 5, m
         16    1.262E+01                                 F               0         Tower X translation displacement, node 6, m
         17   -3.947E+00                                 F               0         Tower Y translation displacement, node 6, m
         18   -4.399E-01                                 F               0         Tower Z translation displacement, node 6, m
         19    1.371E+01                                 F               0         Tower X translation displacement, node 7, m
         20   -4.498E+00                                 F               0         Tower Y translation displacement, node 7, m
         21   -5.007E-01                                 F               0         Tower Z translation displacement, node 7, m
         22    1.481E+01                                 F               0         Tower X translation displacement, node 8, m
         23   -5.052E+00                                 F               0         Tower Y translation displacement, node 8, m
         24   -5.620E-01                                 F               0         Tower Z translation displacement, node 8, m
         25    1.591E+01                                 F               0         Tower X translation displacement, node 9, m
         26   -5.607E+00                                 F               0         Tower Y translation displacement, node 9, m
         27   -6.235E-01                                 F               0         Tower Z translation displacement, node 9, m
         28    1.701E+01                                 F               0         Tower X translation displacement, node 10, m
         29   -6.163E+00                                 F               0         Tower Y translation displacement, node 10, m
         30   -6.853E-01                                 F               0         Tower Z translation displacement, node 10, m
         31    1.811E+01                                 F               0         Tower X translation displacement, node 11, m
         32   -6.720E+00                                 F               0         Tower Y translation displacement, node 11, m
         33   -7.471E-01                                 F               0         Tower Z translation displacement, node 11, m
         34    9.965E-01,  4.225E-03, -8.384E-02         F               0         Tower X orientation angle, node 1, rad
         35   -5.957E-04,  9.991E-01,  4.326E-02         F               0         Tower Y orientation angle, node 1, rad
         36    8.395E-02, -4.306E-02,  9.955E-01         F               0         Tower Z orientation angle, node 1, rad
         37    9.964E-01,  4.277E-03, -8.505E-02         F               0         Tower X orientation angle, node 2, rad
         38   -5.627E-04,  9.990E-01,  4.365E-02         F               0         Tower Y orientation angle, node 2, rad
         39    8.516E-02, -4.344E-02,  9.954E-01         F               0         Tower Z orientation angle, node 2, rad
         40    9.963E-01,  4.323E-03, -8.609E-02         F               0         Tower X orientation angle, node 3, rad
         41   -5.327E-04,  9.990E-01,  4.400E-02         F               0         Tower Y orientation angle, node 3, rad
         42    8.620E-02, -4.379E-02,  9.953E-01         F               0         Tower Z orientation angle, node 3, rad
         43    9.962E-01,  4.361E-03, -8.695E-02         F               0         Tower X orientation angle, node 4, rad
         44   -5.062E-04,  9.990E-01,  4.430E-02         F               0         Tower Y orientation angle, node 4, rad
         45    8.706E-02, -4.409E-02,  9.952E-01         F               0         Tower Z orientation angle, node 4, rad
         46    9.961E-01,  4.391E-03, -8.764E-02         F               0         Tower X orientation angle, node 5, rad
         47   -4.833E-04,  9.990E-01,  4.456E-02         F               0         Tower Y orientation angle, node 5, rad
         48    8.775E-02, -4.435E-02,  9.952E-01         F               0         Tower Z orientation angle, node 5, rad
         49    9.961E-01,  4.415E-03, -8.816E-02         F               0         Tower X orientation angle, node 6, rad
         50   -4.640E-04,  9.990E-01,  4.478E-02         F               0         Tower Y orientation angle, node 6, rad
         51    8.827E-02, -4.457E-02,  9.951E-01         F               0         Tower Z orientation angle, node 6, rad
         52    9.961E-01,  4.432E-03, -8.853E-02         F               0         Tower X orientation angle, node 7, rad
         53   -4.485E-04,  9.990E-01,  4.496E-02         F               0         Tower Y orientation angle, node 7, rad
         54    8.864E-02, -4.474E-02,  9.951E-01         F               0         Tower Z orientation angle, node 7, rad
         55    9.960E-01,  4.443E-03, -8.879E-02         F               0         Tower X orientation angle, node 8, rad
         56   -4.365E-04,  9.990E-01,  4.509E-02         F               0         Tower Y orientation angle, node 8, rad
         57    8.890E-02, -4.488E-02,  9.950E-01         F               0         Tower Z orientation angle, node 8, rad
         58    9.960E-01,  4.451E-03, -8.895E-02         F               0         Tower X orientation angle, node 9, rad
         59   -4.277E-04,  9.990E-01,  4.519E-02         F               0         Tower Y orientation angle, node 9, rad
         60    8.906E-02, -4.498E-02,  9.950E-01         F               0         Tower Z orientation angle, node 9, rad
         61    9.960E-01,  4.455E-03, -8.904E-02         F               0         Tower X orientation angle, node 10, rad
         62   -4.219E-04,  9.990E-01,  4.526E-02         F               0         Tower Y orientation angle, node 10, rad
         63    8.915E-02, -4.504E-02,  9.950E-01         F               0         Tower Z orientation angle, node 10, rad
         64    9.960E-01,  4.457E-03, -8.908E-02         F               0         Tower X orientation angle, node 11, rad
         65   -4.187E-04,  9.990E-01,  4.530E-02         F               0         Tower Y orientation angle, node 11, rad
         66    8.919E-02, -4.508E-02,  9.950E-01         F               0         Tower Z orientation angle, node 11, rad
         67   -5.024E-03                                 F               0         Tower X translation velocity, node 1, m/s
         68   -1.002E-03                                 F               0         Tower Y translation velocity, node 1, m/s
         69    4.000E-03                                 F               0         Tower Z translation velocity, node 1, m/s
         70   -4.850E-03                                 F               0         Tower X translation velocity, node 2, m/s
         71   -1.797E-03                                 F               0         Tower Y translation velocity, node 2, m/s
         72    3.951E-03                                 F               0         Tower Z translation velocity, node 2, m/s
         73   -4.684E-03                                 F               0         Tower X translation velocity, node 3, m/s
         74   -2.618E-03                                 F               0         Tower Y translation velocity, node 3, m/s
         75    3.901E-03                                 F               0         Tower Z translation velocity, node 3, m/s
         76   -4.528E-03                                 F               0         Tower X translation velocity, node 4, m/s
         77   -3.458E-03                                 F               0         Tower Y translation velocity, node 4, m/s
         78    3.850E-03                                 F               0         Tower Z translation velocity, node 4, m/s
         79   -4.382E-03                                 F               0         Tower X translation velocity, node 5, m/s
         80   -4.316E-03                                 F               0         Tower Y translation velocity, node 5, m/s
         81    3.799E-03                                 F               0         Tower Z translation velocity, node 5, m/s
         82   -4.246E-03                                 F               0         Tower X translation velocity, node 6, m/s
         83   -5.189E-03                                 F               0         Tower Y translation velocity, node 6, m/s
         84    3.748E-03                                 F               0         Tower Z translation velocity, node 6, m/s
         85   -4.118E-03                                 F               0         Tower X translation velocity, node 7, m/s
         86   -6.075E-03                                 F               0         Tower Y translation velocity, node 7, m/s
         87    3.697E-03                                 F               0         Tower Z translation velocity, node 7, m/s
         88   -4.000E-03                                 F               0         Tower X translation velocity, node 8, m/s
         89   -6.972E-03                                 F               0         Tower Y translation velocity, node 8, m/s
         90    3.646E-03                                 F               0         Tower Z translation velocity, node 8, m/s
         91   -3.890E-03                                 F               0         Tower X translation velocity, node 9, m/s
         92   -7.877E-03                                 F               0         Tower Y translation velocity, node 9, m/s
         93    3.595E-03                                 F               0         Tower Z translation velocity, node 9, m/s
         94   -3.786E-03                                 F               0         Tower X translation velocity, node 10, m/s
         95   -8.789E-03                                 F               0         Tower Y translation velocity, node 10, m/s
         96    3.545E-03                                 F               0         Tower Z translation velocity, node 10, m/s
         97   -3.686E-03                                 F               0         Tower X translation velocity, node 11, m/s
         98   -9.705E-03                                 F               0         Tower Y translation velocity, node 11, m/s
         99    3.494E-03                                 F               0         Tower Z translation velocity, node 11, m/s
        100    1.886E+01                                 F               0         Hub X translation displacement, node 1, m
        101   -7.122E+00                                 F               0         Hub Y translation displacement, node 1, m
        102    1.758E-01                                 F               0         Hub Z translation displacement, node 1, m
        103    9.812E-01,  9.144E-03, -1.926E-01         F               0         Hub X orientation angle, node 1, rad
        104    1.771E-01, -4.374E-01,  8.816E-01         F               0         Hub Y orientation angle, node 1, rad
        105   -7.618E-02, -8.992E-01, -4.308E-01         F               0         Hub Z orientation angle, node 1, rad
        106    6.941E-01                                 F               0         Hub X rotation velocity, node 1, rad/s
        107    6.477E-03                                 F               0         Hub Y rotation velocity, node 1, rad/s
        108   -1.363E-01                                 F               0         Hub Z rotation velocity, node 1, rad/s
        109    9.755E-01,  2.212E-02, -2.187E-01         F               0         Blade root 1 X orientation angle, node 1, rad
        110    2.062E-01, -4.369E-01,  8.755E-01         F               0         Blade root 1 Y orientation angle, node 1, rad
        111   -7.618E-02, -8.992E-01, -4.308E-01         F               0         Blade root 1 Z orientation angle, node 1, rad
        112    9.854E-01,  2.575E-02, -1.684E-01         F               0         Blade root 2 X orientation angle, node 1, rad
        113   -1.254E-01, -5.595E-01, -8.193E-01         F               0         Blade root 2 Y orientation angle, node 1, rad
        114   -1.153E-01,  8.284E-01, -5.481E-01         F               0         Blade root 2 Z orientation angle, node 1, rad
        115    9.815E-01, -2.045E-02, -1.905E-01         F               0         Blade root 3 X orientation angle, node 1, rad
        116    6.532E-03,  9.973E-01, -7.340E-02         F               0         Blade root 3 Y orientation angle, node 1, rad
        117    1.915E-01,  7.080E-02,  9.789E-01         F               0         Blade root 3 Z orientation angle, node 1, rad
        118    1.785E+01                                 F               0         Blade 1 X translation displacement, node 1, m
        119   -1.210E+01                                 F               0         Blade 1 Y translation displacement, node 1, m
        120   -7.721E+00                                 F               0         Blade 1 Z translation displacement, node 1, m
        121    1.761E+01                                 F               0         Blade 1 X translation displacement, node 2, m
        122   -1.330E+01                                 F               0         Blade 1 Y translation displacement, node 2, m
        123   -9.623E+00                                 F               0         Blade 1 Z translation displacement, node 2, m
        124    1.433E+01                                 F               0         Blade 1 X translation displacement, node 3, m
        125   -2.963E+01                                 F               0         Blade 1 Y translation displacement, node 3, m
        126   -3.550E+01                                 F               0         Blade 1 Z translation displacement, node 3, m
        127    1.363E+01                                 F               0         Blade 1 X translation displacement, node 4, m
        128   -3.310E+01                                 F               0         Blade 1 Y translation displacement, node 4, m
        129   -4.101E+01                                 F               0         Blade 1 Z translation displacement, node 4, m
        130    1.294E+01                                 F               0         Blade 1 X translation displacement, node 5, m
        131   -3.658E+01                                 F               0         Blade 1 Y translation displacement, node 5, m
        132   -4.652E+01                                 F               0         Blade 1 Z translation displacement, node 5, m
        133    1.224E+01                                 F               0         Blade 1 X translation displacement, node 6, m
        134   -4.006E+01                                 F               0         Blade 1 Y translation displacement, node 6, m
        135   -5.204E+01                                 F               0         Blade 1 Z translation displacement, node 6, m
        136    1.154E+01                                 F               0         Blade 1 X translation displacement, node 7, m
        137   -4.354E+01                                 F               0         Blade 1 Y translation displacement, node 7, m
        138   -5.755E+01                                 F               0         Blade 1 Z translation displacement, node 7, m
        139    1.084E+01                                 F               0         Blade 1 X translation displacement, node 8, m
        140   -4.702E+01                                 F               0         Blade 1 Y translation displacement, node 8, m
        141   -6.306E+01                                 F               0         Blade 1 Z translation displacement, node 8, m
        142    1.014E+01                                 F               0         Blade 1 X translation displacement, node 9, m
        143   -5.049E+01                                 F               0         Blade 1 Y translation displacement, node 9, m
        144   -6.857E+01                                 F               0         Blade 1 Z translation displacement, node 9, m
        145    9.441E+00                                 F               0         Blade 1 X translation displacement, node 10, m
        146   -5.397E+01                                 F               0         Blade 1 Y translation displacement, node 10, m
        147   -7.409E+01                                 F               0         Blade 1 Z translation displacement, node 10, m
        148    8.742E+00                                 F               0         Blade 1 X translation displacement, node 11, m
        149   -5.745E+01                                 F               0         Blade 1 Y translation displacement, node 11, m
        150   -7.960E+01                                 F               0         Blade 1 Z translation displacement, node 11, m
        151    8.043E+00                                 F               0         Blade 1 X translation displacement, node 12, m
        152   -6.093E+01                                 F               0         Blade 1 Y translation displacement, node 12, m
        153   -8.511E+01                                 F               0         Blade 1 Z translation displacement, node 12, m
        154    7.344E+00                                 F               0         Blade 1 X translation displacement, node 13, m
        155   -6.441E+01                                 F               0         Blade 1 Y translation displacement, node 13, m
        156   -9.062E+01                                 F               0         Blade 1 Z translation displacement, node 13, m
        157    6.645E+00                                 F               0         Blade 1 X translation displacement, node 14, m
        158   -6.788E+01                                 F               0         Blade 1 Y translation displacement, node 14, m
        159   -9.614E+01                                 F               0         Blade 1 Z translation displacement, node 14, m
        160    5.946E+00                                 F               0         Blade 1 X translation displacement, node 15, m
        161   -7.136E+01                                 F               0         Blade 1 Y translation displacement, node 15, m
        162   -1.017E+02                                 F               0         Blade 1 Z translation displacement, node 15, m
        163    5.247E+00                                 F               0         Blade 1 X translation displacement, node 16, m
        164   -7.484E+01                                 F               0         Blade 1 Y translation displacement, node 16, m
        165   -1.072E+02                                 F               0         Blade 1 Z translation displacement, node 16, m
        166    4.548E+00                                 F               0         Blade 1 X translation displacement, node 17, m
        167   -7.832E+01                                 F               0         Blade 1 Y translation displacement, node 17, m
        168   -1.127E+02                                 F               0         Blade 1 Z translation displacement, node 17, m
        169    3.849E+00                                 F               0         Blade 1 X translation displacement, node 18, m
        170   -8.180E+01                                 F               0         Blade 1 Y translation displacement, node 18, m
        171   -1.182E+02                                 F               0         Blade 1 Z translation displacement, node 18, m
        172    3.150E+00                                 F               0         Blade 1 X translation displacement, node 19, m
        173   -8.527E+01                                 F               0         Blade 1 Y translation displacement, node 19, m
        174   -1.237E+02                                 F               0         Blade 1 Z translation displacement, node 19, m
        175    2.451E+00                                 F               0         Blade 1 X translation displacement, node 20, m
        176   -8.875E+01                                 F               0         Blade 1 Y translation displacement, node 20, m
        177   -1.292E+02                                 F               0         Blade 1 Z translation displacement, node 20, m
        178    1.752E+00                                 F               0         Blade 1 X translation displacement, node 21, m
        179   -9.223E+01                                 F               0         Blade 1 Y translation displacement, node 21, m
        180   -1.347E+02                                 F               0         Blade 1 Z translation displacement, node 21, m
        181    1.053E+00                                 F               0         Blade 1 X translation displacement, node 22, m
        182   -9.571E+01                                 F               0         Blade 1 Y translation displacement, node 22, m
        183   -1.402E+02                                 F               0         Blade 1 Z translation displacement, node 22, m
        184    3.544E-01                                 F               0         Blade 1 X translation displacement, node 23, m
        185   -9.919E+01                                 F               0         Blade 1 Y translation displacement, node 23, m
        186   -1.458E+02                                 F               0         Blade 1 Z translation displacement, node 23, m
        187   -3.445E-01                                 F               0         Blade 1 X translation displacement, node 24, m
        188   -1.027E+02                                 F               0         Blade 1 Y translation displacement, node 24, m
        189   -1.513E+02                                 F               0         Blade 1 Z translation displacement, node 24, m
        190   -1.043E+00                                 F               0         Blade 1 X translation displacement, node 25, m
        191   -1.061E+02                                 F               0         Blade 1 Y translation displacement, node 25, m
        192   -1.568E+02                                 F               0         Blade 1 Z translation displacement, node 25, m
        193   -1.742E+00                                 F               0         Blade 1 X translation displacement, node 26, m
        194   -1.096E+02                                 F               0         Blade 1 Y translation displacement, node 26, m
        195   -1.623E+02                                 F               0         Blade 1 Z translation displacement, node 26, m
        196   -2.441E+00                                 F               0         Blade 1 X translation displacement, node 27, m
        197   -1.131E+02                                 F               0         Blade 1 Y translation displacement, node 27, m
        198   -1.678E+02                                 F               0         Blade 1 Z translation displacement, node 27, m
        199   -3.034E+00                                 F               0         Blade 1 X translation displacement, node 28, m
        200   -1.160E+02                                 F               0         Blade 1 Y translation displacement, node 28, m
        201   -1.725E+02                                 F               0         Blade 1 Z translation displacement, node 28, m
        202    7.742E-01,  2.189E-01, -5.939E-01         F               0         Blade 1 X orientation angle, node 1, rad
        203    6.283E-01, -3.788E-01,  6.795E-01         F               0         Blade 1 Y orientation angle, node 1, rad
        204   -7.618E-02, -8.992E-01, -4.308E-01         F               0         Blade 1 Z orientation angle, node 1, rad
        205    7.742E-01,  2.189E-01, -5.939E-01         F               0         Blade 1 X orientation angle, node 2, rad
        206    6.283E-01, -3.788E-01,  6.795E-01         F               0         Blade 1 Y orientation angle, node 2, rad
        207   -7.618E-02, -8.992E-01, -4.308E-01         F               0         Blade 1 Z orientation angle, node 2, rad
        208    9.011E-01,  1.229E-01, -4.159E-01         F               0         Blade 1 X orientation angle, node 3, rad
        209    4.269E-01, -4.199E-01,  8.009E-01         F               0         Blade 1 Y orientation angle, node 3, rad
        210   -7.618E-02, -8.992E-01, -4.308E-01         F               0         Blade 1 Z orientation angle, node 3, rad
        211    9.183E-01,  1.051E-01, -3.817E-01         F               0         Blade 1 X orientation angle, node 4, rad
        212    3.885E-01, -4.247E-01,  8.177E-01         F               0         Blade 1 Y orientation angle, node 4, rad
        213   -7.618E-02, -8.992E-01, -4.308E-01         F               0         Blade 1 Z orientation angle, node 4, rad
        214    9.307E-01,  9.094E-02, -3.544E-01         F               0         Blade 1 X orientation angle, node 5, rad
        215    3.579E-01, -4.279E-01,  8.299E-01         F               0         Blade 1 Y orientation angle, node 5, rad
        216   -7.618E-02, -8.992E-01, -4.308E-01         F               0         Blade 1 Z orientation angle, node 5, rad
        217    9.398E-01,  7.956E-02, -3.323E-01         F               0         Blade 1 X orientation angle, node 6, rad
        218    3.330E-01, -4.302E-01,  8.390E-01         F               0         Blade 1 Y orientation angle, node 6, rad
        219   -7.618E-02, -8.992E-01, -4.308E-01         F               0         Blade 1 Z orientation angle, node 6, rad
        220    9.469E-01,  7.016E-02, -3.139E-01         F               0         Blade 1 X orientation angle, node 7, rad
        221    3.125E-01, -4.318E-01,  8.461E-01         F               0         Blade 1 Y orientation angle, node 7, rad
        222   -7.618E-02, -8.992E-01, -4.308E-01         F               0         Blade 1 Z orientation angle, node 7, rad
        223    9.524E-01,  6.231E-02, -2.985E-01         F               0         Blade 1 X orientation angle, node 8, rad
        224    2.952E-01, -4.330E-01,  8.517E-01         F               0         Blade 1 Y orientation angle, node 8, rad
        225   -7.618E-02, -8.992E-01, -4.308E-01         F               0         Blade 1 Z orientation angle, node 8, rad
        226    9.568E-01,  5.565E-02, -2.853E-01         F               0         Blade 1 X orientation angle, node 9, rad
        227    2.806E-01, -4.340E-01,  8.561E-01         F               0         Blade 1 Y orientation angle, node 9, rad