
Linearized model: Predictions were generated on 11-Jan-2024 at 12:32:35 using OpenFAST, compiled as a 64-bit application using single precision at commit v3.5.1
 linked with  NWTC Subroutine Library; ElastoDyn; InflowWind; AeroDyn; ServoDyn; HydroDyn; MoorDyn (v2.0.0, 2023-09-18)

Description from the FAST input file: CCT-9 Campign 4 model. Input files to be run with OpenFAST 3.5.0. GitHub branch from Lu Wang (https://github.com/luwang00/openfast/tree/dev) compiled on March 7, 2023.

Simulation information:
   Simulation time:                   504.4500 s
   Rotor Speed:                         0.7073 rad/s
   Azimuth:                             0.4055 rad
   Wind Speed:                          8.0000 m/s
   Number of continuous states:         0
   Number of discrete states:           0
   Number of constraint states:         0
   Number of inputs:                 1746
   Number of outputs:                   4
   Jacobians included in this file?    No

Order of inputs:
     Column   Operating Point                     Rotating Frame? Derivative Order Description
   ---------- ---------------                     --------------- ---------------- -----------
          1    7.289E+00                                 F               0         Tower X translation displacement, node 1, m
          2   -1.235E+00                                 F               0         Tower Y translation displacement, node 1, m
          3   -1.582E-01                                 F               0         Tower Z translation displacement, node 1, m
          4    8.333E+00                                 F               0         Tower X translation displacement, node 2, m
          5   -1.768E+00                                 F               0         Tower Y translation displacement, node 2, m
          6   -2.139E-01                                 F               0         Tower Z translation displacement, node 2, m
          7    9.392E+00                                 F               0         Tower X translation displacement, node 3, m
          8   -2.306E+00                                 F               0         Tower Y translation displacement, node 3, m
          9   -2.712E-01                                 F               0         Tower Z translation displacement, node 3, m
         10    1.046E+01                                 F               0         Tower X translation displacement, node 4, m
         11   -2.849E+00                                 F               0         Tower Y translation displacement, node 4, m
         12   -3.296E-01                                 F               0         Tower Z translation displacement, node 4, m
         13    1.154E+01                                 F               0         Tower X translation displacement, node 5, m
         14   -3.394E+00                                 F               0         Tower Y translation displacement, node 5, m
         15   -3.890E-01                                 F               0         Tower Z translation displacement, node 5, m
         16    1.263E+01                                 F               0         Tower X translation displacement, node 6, m
         17   -3.943E+00                                 F               0         Tower Y translation displacement, node 6, m
         18   -4.492E-01                                 F               0         Tower Z translation displacement, node 6, m
         19    1.372E+01                                 F               0         Tower X translation displacement, node 7, m
         20   -4.494E+00                                 F               0         Tower Y translation displacement, node 7, m
         21   -5.099E-01                                 F               0         Tower Z translation displacement, node 7, m
         22    1.482E+01                                 F               0         Tower X translation displacement, node 8, m
         23   -5.046E+00                                 F               0         Tower Y translation displacement, node 8, m
         24   -5.711E-01                                 F               0         Tower Z translation displacement, node 8, m
         25    1.592E+01                                 F               0         Tower X translation displacement, node 9, m
         26   -5.600E+00                                 F               0         Tower Y translation displacement, node 9, m
         27   -6.326E-01                                 F               0         Tower Z translation displacement, node 9, m
         28    1.702E+01                                 F               0         Tower X translation displacement, node 10, m
         29   -6.156E+00                                 F               0         Tower Y translation displacement, node 10, m
         30   -6.943E-01                                 F               0         Tower Z translation displacement, node 10, m
         31    1.812E+01                                 F               0         Tower X translation displacement, node 11, m
         32   -6.712E+00                                 F               0         Tower Y translation displacement, node 11, m
         33   -7.560E-01                                 F               0         Tower Z translation displacement, node 11, m
         34    9.965E-01,  4.251E-03, -8.382E-02         F               0         Tower X orientation angle, node 1, rad
         35   -6.283E-04,  9.991E-01,  4.320E-02         F               0         Tower Y orientation angle, node 1, rad
         36    8.393E-02, -4.300E-02,  9.955E-01         F               0         Tower Z orientation angle, node 1, rad
         37    9.964E-01,  4.304E-03, -8.503E-02         F               0         Tower X orientation angle, node 2, rad
         38   -5.956E-04,  9.990E-01,  4.359E-02         F               0         Tower Y orientation angle, node 2, rad
         39    8.514E-02, -4.338E-02,  9.954E-01         F               0         Tower Z orientation angle, node 2, rad
         40    9.963E-01,  4.349E-03, -8.607E-02         F               0         Tower X orientation angle, node 3, rad
         41   -5.659E-04,  9.990E-01,  4.393E-02         F               0         Tower Y orientation angle, node 3, rad
         42    8.618E-02, -4.372E-02,  9.953E-01         F               0         Tower Z orientation angle, node 3, rad
         43    9.962E-01,  4.387E-03, -8.693E-02         F               0         Tower X orientation angle, node 4, rad
         44   -5.396E-04,  9.990E-01,  4.424E-02         F               0         Tower Y orientation angle, node 4, rad
         45    8.704E-02, -4.402E-02,  9.952E-01         F               0         Tower Z orientation angle, node 4, rad
         46    9.961E-01,  4.418E-03, -8.761E-02         F               0         Tower X orientation angle, node 5, rad
         47   -5.169E-04,  9.990E-01,  4.450E-02         F               0         Tower Y orientation angle, node 5, rad
         48    8.772E-02, -4.428E-02,  9.952E-01         F               0         Tower Z orientation angle, node 5, rad
         49    9.961E-01,  4.441E-03, -8.813E-02         F               0         Tower X orientation angle, node 6, rad
         50   -4.978E-04,  9.990E-01,  4.471E-02         F               0         Tower Y orientation angle, node 6, rad
         51    8.824E-02, -4.449E-02,  9.951E-01         F               0         Tower Z orientation angle, node 6, rad
         52    9.961E-01,  4.458E-03, -8.851E-02         F               0         Tower X orientation angle, node 7, rad
         53   -4.825E-04,  9.990E-01,  4.489E-02         F               0         Tower Y orientation angle, node 7, rad
         54    8.862E-02, -4.467E-02,  9.951E-01         F               0         Tower Z orientation angle, node 7, rad
         55    9.960E-01,  4.469E-03, -8.876E-02         F               0         Tower X orientation angle, node 8, rad
         56   -4.706E-04,  9.990E-01,  4.502E-02         F               0         Tower Y orientation angle, node 8, rad
         57    8.887E-02, -4.480E-02,  9.950E-01         F               0         Tower Z orientation angle, node 8, rad
         58    9.960E-01,  4.477E-03, -8.892E-02         F               0         Tower X orientation angle, node 9, rad
         59   -4.618E-04,  9.990E-01,  4.512E-02         F               0         Tower Y orientation angle, node 9, rad
         60    8.904E-02, -4.490E-02,  9.950E-01         F               0         Tower Z orientation angle, node 9, rad
         61    9.960E-01,  4.481E-03, -8.901E-02         F               0         Tower X orientation angle, node 10, rad
         62   -4.561E-04,  9.990E-01,  4.518E-02         F               0         Tower Y orientation angle, node 10, rad
         63    8.913E-02, -4.496E-02,  9.950E-01         F               0         Tower Z orientation angle, node 10, rad
         64    9.960E-01,  4.483E-03, -8.905E-02         F               0         Tower X orientation angle, node 11, rad
         65   -4.530E-04,  9.990E-01,  4.522E-02         F               0         Tower Y orientation angle, node 11, rad
         66    8.917E-02, -4.500E-02,  9.950E-01         F               0         Tower Z orientation angle, node 11, rad
         67   -4.867E-03                                 F               0         Tower X translation velocity, node 1, m/s
         68    9.641E-04                                 F               0         Tower Y translation velocity, node 1, m/s
         69    4.275E-03                                 F               0         Tower Z translation velocity, node 1, m/s
         70   -4.754E-03                                 F               0         Tower X translation velocity, node 2, m/s
         71    9.565E-04                                 F               0         Tower Y translation velocity, node 2, m/s
         72    4.266E-03                                 F               0         Tower Z translation velocity, node 2, m/s
         73   -4.649E-03                                 F               0         Tower X translation velocity, node 3, m/s
         74    9.398E-04                                 F               0         Tower Y translation velocity, node 3, m/s
         75    4.256E-03                                 F               0         Tower Z translation velocity, node 3, m/s
         76   -4.550E-03                                 F               0         Tower X translation velocity, node 4, m/s
         77    9.156E-04                                 F               0         Tower Y translation velocity, node 4, m/s
         78    4.246E-03                                 F               0         Tower Z translation velocity, node 4, m/s
         79   -4.457E-03                                 F               0         Tower X translation velocity, node 5, m/s
         80    8.847E-04                                 F               0         Tower Y translation velocity, node 5, m/s
         81    4.237E-03                                 F               0         Tower Z translation velocity, node 5, m/s
         82   -4.369E-03                                 F               0         Tower X translation velocity, node 6, m/s
         83    8.479E-04                                 F               0         Tower Y translation velocity, node 6, m/s
         84    4.227E-03                                 F               0         Tower Z translation velocity, node 6, m/s
         85   -4.285E-03                                 F               0         Tower X translation velocity, node 7, m/s
         86    8.064E-04                                 F               0         Tower Y translation velocity, node 7, m/s
         87    4.218E-03                                 F               0         Tower Z translation velocity, node 7, m/s
         88   -4.206E-03                                 F               0         Tower X translation velocity, node 8, m/s
         89    7.605E-04                                 F               0         Tower Y translation velocity, node 8, m/s
         90    4.209E-03                                 F               0         Tower Z translation velocity, node 8, m/s
         91   -4.129E-03                                 F               0         Tower X translation velocity, node 9, m/s
         92    7.112E-04                                 F               0         Tower Y translation velocity, node 9, m/s
         93    4.200E-03                                 F               0         Tower Z translation velocity, node 9, m/s
         94   -4.055E-03                                 F               0         Tower X translation velocity, node 10, m/s
         95    6.594E-04                                 F               0         Tower Y translation velocity, node 10, m/s
         96    4.191E-03                                 F               0         Tower Z translation velocity, node 10, m/s
         97   -3.983E-03                                 F               0         Tower X translation velocity, node 11, m/s
         98    6.061E-04                                 F               0         Tower Y translation velocity, node 11, m/s
         99    4.182E-03                                 F               0         Tower Z translation velocity, node 11, m/s
        100    1.886E+01                                 F               0         Hub X translation displacement, node 1, m
        101   -7.113E+00                                 F               0         Hub Y translation displacement, node 1, m
        102    1.665E-01                                 F               0         Hub Z translation displacement, node 1, m
        103    9.812E-01,  9.162E-03, -1.926E-01         F               0         Hub X orientation angle, node 1, rad
        104    7.563E-02,  9.005E-01,  4.282E-01         F               0         Hub Y orientation angle, node 1, rad
        105    1.773E-01, -4.347E-01,  8.829E-01         F               0         Hub Z orientation angle, node 1, rad
        106    6.940E-01                                 F               0         Hub X rotation velocity, node 1, rad/s
        107    6.486E-03                                 F               0         Hub Y rotation velocity, node 1, rad/s
        108   -1.362E-01                                 F               0         Hub Z rotation velocity, node 1, rad/s
        109    9.786E-01, -1.756E-02, -2.052E-01         F               0         Blade root 1 X orientation angle, node 1, rad
        110    1.047E-01,  9.004E-01,  4.223E-01         F               0         Blade root 1 Y orientation angle, node 1, rad
        111    1.773E-01, -4.347E-01,  8.829E-01         F               0         Blade root 1 Z orientation angle, node 1, rad
        112    9.774E-01,  3.368E-02, -2.088E-01         F               0         Blade root 2 X orientation angle, node 1, rad
        113    1.448E-01, -8.261E-01,  5.446E-01         F               0         Blade root 2 Y orientation angle, node 1, rad
        114   -1.542E-01, -5.625E-01, -8.123E-01         F               0         Blade root 2 Z orientation angle, node 1, rad
        115    9.865E-01,  1.135E-02, -1.635E-01         F               0         Blade root 3 X orientation angle, node 1, rad
        116   -1.622E-01, -7.345E-02, -9.840E-01         F               0         Blade root 3 Y orientation angle, node 1, rad
        117   -2.317E-02,  9.972E-01, -7.062E-02         F               0         Blade root 3 Z orientation angle, node 1, rad
        118    1.927E+01                                 F               0         Blade 1 X translation displacement, node 1, m
        119   -9.522E+00                                 F               0         Blade 1 Y translation displacement, node 1, m
        120   -4.517E-01                                 F               0         Blade 1 Z translation displacement, node 1, m
        121    1.936E+01                                 F               0         Blade 1 X translation displacement, node 2, m
        122   -1.010E+01                                 F               0         Blade 1 Y translation displacement, node 2, m
        123   -6.007E-01                                 F               0         Blade 1 Z translation displacement, node 2, m
        124    2.069E+01                                 F               0         Blade 1 X translation displacement, node 3, m
        125   -1.799E+01                                 F               0         Blade 1 Y translation displacement, node 3, m
        126   -2.627E+00                                 F               0         Blade 1 Z translation displacement, node 3, m
        127    2.097E+01                                 F               0         Blade 1 X translation displacement, node 4, m
        128   -1.968E+01                                 F               0         Blade 1 Y translation displacement, node 4, m
        129   -3.058E+00                                 F               0         Blade 1 Z translation displacement, node 4, m
        130    2.125E+01                                 F               0         Blade 1 X translation displacement, node 5, m
        131   -2.136E+01                                 F               0         Blade 1 Y translation displacement, node 5, m
        132   -3.490E+00                                 F               0         Blade 1 Z translation displacement, node 5, m
        133    2.153E+01                                 F               0         Blade 1 X translation displacement, node 6, m
        134   -2.304E+01                                 F               0         Blade 1 Y translation displacement, node 6, m
        135   -3.921E+00                                 F               0         Blade 1 Z translation displacement, node 6, m
        136    2.181E+01                                 F               0         Blade 1 X translation displacement, node 7, m
        137   -2.472E+01                                 F               0         Blade 1 Y translation displacement, node 7, m
        138   -4.353E+00                                 F               0         Blade 1 Z translation displacement, node 7, m
        139    2.209E+01                                 F               0         Blade 1 X translation displacement, node 8, m
        140   -2.640E+01                                 F               0         Blade 1 Y translation displacement, node 8, m
        141   -4.785E+00                                 F               0         Blade 1 Z translation displacement, node 8, m
        142    2.238E+01                                 F               0         Blade 1 X translation displacement, node 9, m
        143   -2.808E+01                                 F               0         Blade 1 Y translation displacement, node 9, m
        144   -5.216E+00                                 F               0         Blade 1 Z translation displacement, node 9, m
        145    2.266E+01                                 F               0         Blade 1 X translation displacement, node 10, m
        146   -2.976E+01                                 F               0         Blade 1 Y translation displacement, node 10, m
        147   -5.648E+00                                 F               0         Blade 1 Z translation displacement, node 10, m
        148    2.294E+01                                 F               0         Blade 1 X translation displacement, node 11, m
        149   -3.145E+01                                 F               0         Blade 1 Y translation displacement, node 11, m
        150   -6.080E+00                                 F               0         Blade 1 Z translation displacement, node 11, m
        151    2.322E+01                                 F               0         Blade 1 X translation displacement, node 12, m
        152   -3.313E+01                                 F               0         Blade 1 Y translation displacement, node 12, m
        153   -6.511E+00                                 F               0         Blade 1 Z translation displacement, node 12, m
        154    2.350E+01                                 F               0         Blade 1 X translation displacement, node 13, m
        155   -3.481E+01                                 F               0         Blade 1 Y translation displacement, node 13, m
        156   -6.943E+00                                 F               0         Blade 1 Z translation displacement, node 13, m
        157    2.378E+01                                 F               0         Blade 1 X translation displacement, node 14, m
        158   -3.649E+01                                 F               0         Blade 1 Y translation displacement, node 14, m
        159   -7.375E+00                                 F               0         Blade 1 Z translation displacement, node 14, m
        160    2.407E+01                                 F               0         Blade 1 X translation displacement, node 15, m
        161   -3.817E+01                                 F               0         Blade 1 Y translation displacement, node 15, m
        162   -7.806E+00                                 F               0         Blade 1 Z translation displacement, node 15, m
        163    2.435E+01                                 F               0         Blade 1 X translation displacement, node 16, m
        164   -3.985E+01                                 F               0         Blade 1 Y translation displacement, node 16, m
        165   -8.238E+00                                 F               0         Blade 1 Z translation displacement, node 16, m
        166    2.463E+01                                 F               0         Blade 1 X translation displacement, node 17, m
        167   -4.153E+01                                 F               0         Blade 1 Y translation displacement, node 17, m
        168   -8.669E+00                                 F               0         Blade 1 Z translation displacement, node 17, m
        169    2.491E+01                                 F               0         Blade 1 X translation displacement, node 18, m
        170   -4.322E+01                                 F               0         Blade 1 Y translation displacement, node 18, m
        171   -9.101E+00                                 F               0         Blade 1 Z translation displacement, node 18, m
        172    2.519E+01                                 F               0         Blade 1 X translation displacement, node 19, m
        173   -4.490E+01                                 F               0         Blade 1 Y translation displacement, node 19, m
        174   -9.533E+00                                 F               0         Blade 1 Z translation displacement, node 19, m
        175    2.547E+01                                 F               0         Blade 1 X translation displacement, node 20, m
        176   -4.658E+01                                 F               0         Blade 1 Y translation displacement, node 20, m
        177   -9.964E+00                                 F               0         Blade 1 Z translation displacement, node 20, m
        178    2.575E+01                                 F               0         Blade 1 X translation displacement, node 21, m
        179   -4.826E+01                                 F               0         Blade 1 Y translation displacement, node 21, m
        180   -1.040E+01                                 F               0         Blade 1 Z translation displacement, node 21, m
        181    2.604E+01                                 F               0         Blade 1 X translation displacement, node 22, m
        182   -4.994E+01                                 F               0         Blade 1 Y translation displacement, node 22, m
        183   -1.083E+01                                 F               0         Blade 1 Z translation displacement, node 22, m
        184    2.632E+01                                 F               0         Blade 1 X translation displacement, node 23, m
        185   -5.162E+01                                 F               0         Blade 1 Y translation displacement, node 23, m
        186   -1.126E+01                                 F               0         Blade 1 Z translation displacement, node 23, m
        187    2.660E+01                                 F               0         Blade 1 X translation displacement, node 24, m
        188   -5.330E+01                                 F               0         Blade 1 Y translation displacement, node 24, m
        189   -1.169E+01                                 F               0         Blade 1 Z translation displacement, node 24, m
        190    2.688E+01                                 F               0         Blade 1 X translation displacement, node 25, m
        191   -5.499E+01                                 F               0         Blade 1 Y translation displacement, node 25, m
        192   -1.212E+01                                 F               0         Blade 1 Z translation displacement, node 25, m
        193    2.716E+01                                 F               0         Blade 1 X translation displacement, node 26, m
        194   -5.667E+01                                 F               0         Blade 1 Y translation displacement, node 26, m
        195   -1.255E+01                                 F               0         Blade 1 Z translation displacement, node 26, m
        196    2.744E+01                                 F               0         Blade 1 X translation displacement, node 27, m
        197   -5.835E+01                                 F               0         Blade 1 Y translation displacement, node 27, m
        198   -1.299E+01                                 F               0         Blade 1 Z translation displacement, node 27, m
        199    2.768E+01                                 F               0         Blade 1 X translation displacement, node 28, m
        200   -5.977E+01                                 F               0         Blade 1 Y translation displacement, node 28, m
        201   -1.335E+01                                 F               0         Blade 1 Z translation displacement, node 28, m
        202    8.231E-01, -4.262E-01, -3.752E-01         F               0         Blade 1 X orientation angle, node 1, rad
        203    5.394E-01,  7.933E-01,  2.823E-01         F               0         Blade 1 Y orientation angle, node 1, rad
        204    1.773E-01, -4.347E-01,  8.829E-01         F               0         Blade 1 Z orientation angle, node 1, rad
        205    8.231E-01, -4.262E-01, -3.752E-01         F               0         Blade 1 X orientation angle, node 2, rad
        206    5.394E-01,  7.933E-01,  2.823E-01         F               0         Blade 1 Y orientation angle, node 2, rad
        207    1.773E-01, -4.347E-01,  8.829E-01         F               0         Blade 1 Z orientation angle, node 2, rad
        208    9.275E-01, -2.260E-01, -2.976E-01         F               0         Blade 1 X orientation angle, node 3, rad
        209    3.290E-01,  8.717E-01,  3.632E-01         F               0         Blade 1 Y orientation angle, node 3, rad
        210    1.773E-01, -4.347E-01,  8.829E-01         F               0         Blade 1 Z orientation angle, node 3, rad
        211    9.406E-01, -1.890E-01, -2.820E-01         F               0         Blade 1 X orientation angle, node 4, rad
        212    2.895E-01,  8.805E-01,  3.754E-01         F               0         Blade 1 Y orientation angle, node 4, rad
        213    1.773E-01, -4.347E-01,  8.829E-01         F               0         Blade 1 Z orientation angle, node 4, rad
        214    9.497E-01, -1.597E-01, -2.694E-01         F               0         Blade 1 X orientation angle, node 5, rad
        215    2.582E-01,  8.863E-01,  3.845E-01         F               0         Blade 1 Y orientation angle, node 5, rad
        216    1.773E-01, -4.347E-01,  8.829E-01         F               0         Blade 1 Z orientation angle, node 5, rad
        217    9.562E-01, -1.362E-01, -2.591E-01         F               0         Blade 1 X orientation angle, node 6, rad
        218    2.329E-01,  8.902E-01,  3.916E-01         F               0         Blade 1 Y orientation angle, node 6, rad
        219    1.773E-01, -4.347E-01,  8.829E-01         F               0         Blade 1 Z orientation angle, node 6, rad
        220    9.611E-01, -1.167E-01, -2.505E-01         F               0         Blade 1 X orientation angle, node 7, rad
        221    2.120E-01,  8.930E-01,  3.971E-01         F               0         Blade 1 Y orientation angle, node 7, rad
        222    1.773E-01, -4.347E-01,  8.829E-01         F               0         Blade 1 Z orientation angle, node 7, rad
        223    9.647E-01, -1.005E-01, -2.433E-01         F               0         Blade 1 X orientation angle, node 8, rad
        224    1.945E-01,  8.949E-01,  4.016E-01         F               0         Blade 1 Y orientation angle, node 8, rad
        225    1.773E-01, -4.347E-01,  8.829E-01         F               0         Blade 1 Z orientation angle, node 8, rad
        226    9.676E-01, -8.674E-02, -2.371E-01         F               0         Blade 1 X orientation angle, node 9, rad
        227    1.796E-01,  8.964E-01,  4.053E-01         F               0         Blade 1 Y orientation angle, node 9, rad