
Linearized model: Predictions were generated on 11-Jan-2024 at 12:32:35 using OpenFAST, compiled as a 64-bit application using single precision at commit v3.5.1
 linked with  NWTC Subroutine Library; ElastoDyn; InflowWind; AeroDyn; ServoDyn; HydroDyn; MoorDyn (v2.0.0, 2023-09-18)

Description from the FAST input file: CCT-9 Campign 4 model. Input files to be run with OpenFAST 3.5.0. GitHub branch from Lu Wang (https://github.com/luwang00/openfast/tree/dev) compiled on March 7, 2023.

Simulation information:
   Simulation time:                   502.9750 s
   Rotor Speed:                         0.7075 rad/s
   Azimuth:                             5.6453 rad
   Wind Speed:                          8.0000 m/s
   Number of continuous states:         0
   Number of discrete states:           0
   Number of constraint states:         0
   Number of inputs:                 1746
   Number of outputs:                   4
   Jacobians included in this file?    No

Order of inputs:
     Column   Operating Point                     Rotating Frame? Derivative Order Description
   ---------- ---------------                     --------------- ---------------- -----------
          1    7.296E+00                                 F               0         Tower X translation displacement, node 1, m
          2   -1.237E+00                                 F               0         Tower Y translation displacement, node 1, m
          3   -1.640E-01                                 F               0         Tower Z translation displacement, node 1, m
          4    8.339E+00                                 F               0         Tower X translation displacement, node 2, m
          5   -1.770E+00                                 F               0         Tower Y translation displacement, node 2, m
          6   -2.197E-01                                 F               0         Tower Z translation displacement, node 2, m
          7    9.398E+00                                 F               0         Tower X translation displacement, node 3, m
          8   -2.308E+00                                 F               0         Tower Y translation displacement, node 3, m
          9   -2.769E-01                                 F               0         Tower Z translation displacement, node 3, m
         10    1.047E+01                                 F               0         Tower X translation displacement, node 4, m
         11   -2.851E+00                                 F               0         Tower Y translation displacement, node 4, m
         12   -3.353E-01                                 F               0         Tower Z translation displacement, node 4, m
         13    1.155E+01                                 F               0         Tower X translation displacement, node 5, m
         14   -3.397E+00                                 F               0         Tower Y translation displacement, node 5, m
         15   -3.948E-01                                 F               0         Tower Z translation displacement, node 5, m
         16    1.264E+01                                 F               0         Tower X translation displacement, node 6, m
         17   -3.945E+00                                 F               0         Tower Y translation displacement, node 6, m
         18   -4.549E-01                                 F               0         Tower Z translation displacement, node 6, m
         19    1.373E+01                                 F               0         Tower X translation displacement, node 7, m
         20   -4.496E+00                                 F               0         Tower Y translation displacement, node 7, m
         21   -5.157E-01                                 F               0         Tower Z translation displacement, node 7, m
         22    1.483E+01                                 F               0         Tower X translation displacement, node 8, m
         23   -5.049E+00                                 F               0         Tower Y translation displacement, node 8, m
         24   -5.769E-01                                 F               0         Tower Z translation displacement, node 8, m
         25    1.592E+01                                 F               0         Tower X translation displacement, node 9, m
         26   -5.604E+00                                 F               0         Tower Y translation displacement, node 9, m
         27   -6.383E-01                                 F               0         Tower Z translation displacement, node 9, m
         28    1.703E+01                                 F               0         Tower X translation displacement, node 10, m
         29   -6.159E+00                                 F               0         Tower Y translation displacement, node 10, m
         30   -7.000E-01                                 F               0         Tower Z translation displacement, node 10, m
         31    1.813E+01                                 F               0         Tower X translation displacement, node 11, m
         32   -6.715E+00                                 F               0         Tower Y translation displacement, node 11, m
         33   -7.618E-01                                 F               0         Tower Z translation displacement, node 11, m
         34    9.965E-01,  4.258E-03, -8.381E-02         F               0         Tower X orientation angle, node 1, rad
         35   -6.344E-04,  9.991E-01,  4.322E-02         F               0         Tower Y orientation angle, node 1, rad
         36    8.392E-02, -4.301E-02,  9.955E-01         F               0         Tower Z orientation angle, node 1, rad
         37    9.964E-01,  4.311E-03, -8.502E-02         F               0         Tower X orientation angle, node 2, rad
         38   -6.017E-04,  9.990E-01,  4.360E-02         F               0         Tower Y orientation angle, node 2, rad
         39    8.513E-02, -4.339E-02,  9.954E-01         F               0         Tower Z orientation angle, node 2, rad
         40    9.963E-01,  4.356E-03, -8.606E-02         F               0         Tower X orientation angle, node 3, rad
         41   -5.720E-04,  9.990E-01,  4.395E-02         F               0         Tower Y orientation angle, node 3, rad
         42    8.617E-02, -4.374E-02,  9.953E-01         F               0         Tower Z orientation angle, node 3, rad
         43    9.962E-01,  4.394E-03, -8.692E-02         F               0         Tower X orientation angle, node 4, rad
         44   -5.458E-04,  9.990E-01,  4.425E-02         F               0         Tower Y orientation angle, node 4, rad
         45    8.703E-02, -4.404E-02,  9.952E-01         F               0         Tower Z orientation angle, node 4, rad
         46    9.961E-01,  4.425E-03, -8.760E-02         F               0         Tower X orientation angle, node 5, rad
         47   -5.231E-04,  9.990E-01,  4.451E-02         F               0         Tower Y orientation angle, node 5, rad
         48    8.771E-02, -4.429E-02,  9.952E-01         F               0         Tower Z orientation angle, node 5, rad
         49    9.961E-01,  4.448E-03, -8.812E-02         F               0         Tower X orientation angle, node 6, rad
         50   -5.040E-04,  9.990E-01,  4.473E-02         F               0         Tower Y orientation angle, node 6, rad
         51    8.823E-02, -4.451E-02,  9.951E-01         F               0         Tower Z orientation angle, node 6, rad
         52    9.961E-01,  4.465E-03, -8.850E-02         F               0         Tower X orientation angle, node 7, rad
         53   -4.888E-04,  9.990E-01,  4.490E-02         F               0         Tower Y orientation angle, node 7, rad
         54    8.861E-02, -4.468E-02,  9.951E-01         F               0         Tower Z orientation angle, node 7, rad
         55    9.960E-01,  4.476E-03, -8.875E-02         F               0         Tower X orientation angle, node 8, rad
         56   -4.768E-04,  9.990E-01,  4.503E-02         F               0         Tower Y orientation angle, node 8, rad
         57    8.886E-02, -4.481E-02,  9.950E-01         F               0         Tower Z orientation angle, node 8, rad
         58    9.960E-01,  4.484E-03, -8.891E-02         F               0         Tower X orientation angle, node 9, rad
         59   -4.681E-04,  9.990E-01,  4.513E-02         F               0         Tower Y orientation angle, node 9, rad
         60    8.903E-02, -4.491E-02,  9.950E-01         F               0         Tower Z orientation angle, node 9, rad
         61    9.960E-01,  4.488E-03, -8.900E-02         F               0         Tower X orientation angle, node 10, rad
         62   -4.625E-04,  9.990E-01,  4.520E-02         F               0         Tower Y orientation angle, node 10, rad
         63    8.912E-02, -4.498E-02,  9.950E-01         F               0         Tower Z orientation angle, node 10, rad
         64    9.960E-01,  4.490E-03, -8.904E-02         F               0         Tower X orientation angle, node 11, rad
         65   -4.593E-04,  9.990E-01,  4.523E-02         F               0         Tower Y orientation angle, node 11, rad
         66    8.916E-02, -4.501E-02,  9.950E-01         F               0         Tower Z orientation angle, node 11, rad
         67   -4.752E-03                                 F               0         Tower X translation velocity, node 1, m/s
         68    1.432E-03                                 F               0         Tower Y translation velocity, node 1, m/s
         69    3.406E-03                                 F               0         Tower Z translation velocity, node 1, m/s
         70   -4.709E-03                                 F               0         Tower X translation velocity, node 2, m/s
         71    1.667E-03                                 F               0         Tower Y translation velocity, node 2, m/s
         72    3.413E-03                                 F               0         Tower Z translation velocity, node 2, m/s
         73   -4.651E-03                                 F               0         Tower X translation velocity, node 3, m/s
         74    1.906E-03                                 F               0         Tower Y translation velocity, node 3, m/s
         75    3.418E-03                                 F               0         Tower Z translation velocity, node 3, m/s
         76   -4.578E-03                                 F               0         Tower X translation velocity, node 4, m/s
         77    2.150E-03                                 F               0         Tower Y translation velocity, node 4, m/s
         78    3.423E-03                                 F               0         Tower Z translation velocity, node 4, m/s
         79   -4.490E-03                                 F               0         Tower X translation velocity, node 5, m/s
         80    2.396E-03                                 F               0         Tower Y translation velocity, node 5, m/s
         81    3.426E-03                                 F               0         Tower Z translation velocity, node 5, m/s
         82   -4.387E-03                                 F               0         Tower X translation velocity, node 6, m/s
         83    2.646E-03                                 F               0         Tower Y translation velocity, node 6, m/s
         84    3.428E-03                                 F               0         Tower Z translation velocity, node 6, m/s
         85   -4.271E-03                                 F               0         Tower X translation velocity, node 7, m/s
         86    2.897E-03                                 F               0         Tower Y translation velocity, node 7, m/s
         87    3.429E-03                                 F               0         Tower Z translation velocity, node 7, m/s
         88   -4.143E-03                                 F               0         Tower X translation velocity, node 8, m/s
         89    3.151E-03                                 F               0         Tower Y translation velocity, node 8, m/s
         90    3.429E-03                                 F               0         Tower Z translation velocity, node 8, m/s
         91   -4.004E-03                                 F               0         Tower X translation velocity, node 9, m/s
         92    3.406E-03                                 F               0         Tower Y translation velocity, node 9, m/s
         93    3.428E-03                                 F               0         Tower Z translation velocity, node 9, m/s
         94   -3.856E-03                                 F               0         Tower X translation velocity, node 10, m/s
         95    3.662E-03                                 F               0         Tower Y translation velocity, node 10, m/s
         96    3.426E-03                                 F               0         Tower Z translation velocity, node 10, m/s
         97   -3.703E-03                                 F               0         Tower X translation velocity, node 11, m/s
         98    3.919E-03                                 F               0         Tower Y translation velocity, node 11, m/s
         99    3.424E-03                                 F               0         Tower Z translation velocity, node 11, m/s
        100    1.887E+01                                 F               0         Hub X translation displacement, node 1, m
        101   -7.117E+00                                 F               0         Hub Y translation displacement, node 1, m
        102    1.607E-01                                 F               0         Hub Z translation displacement, node 1, m
        103    9.812E-01,  9.170E-03, -1.926E-01         F               0         Hub X orientation angle, node 1, rad
        104   -1.152E-01,  8.289E-01, -5.474E-01         F               0         Hub Y orientation angle, node 1, rad
        105    1.546E-01,  5.593E-01,  8.144E-01         F               0         Hub Z orientation angle, node 1, rad
        106    6.942E-01                                 F               0         Hub X rotation velocity, node 1, rad/s
        107    6.500E-03                                 F               0         Hub Y rotation velocity, node 1, rad/s
        108   -1.362E-01                                 F               0         Hub Z rotation velocity, node 1, rad/s
        109    9.842E-01, -1.542E-02, -1.762E-01         F               0         Blade root 1 X orientation angle, node 1, rad
        110   -8.601E-02,  8.288E-01, -5.529E-01         F               0         Blade root 1 Y orientation angle, node 1, rad
        111    1.546E-01,  5.593E-01,  8.144E-01         F               0         Blade root 1 Z orientation angle, node 1, rad
        112    9.751E-01,  7.091E-03, -2.215E-01         F               0         Blade root 2 X orientation angle, node 1, rad
        113    2.205E-01,  7.018E-02,  9.729E-01         F               0         Blade root 2 Y orientation angle, node 1, rad
        114    2.245E-02, -9.975E-01,  6.687E-02         F               0         Blade root 2 Z orientation angle, node 1, rad
        115    9.831E-01,  3.583E-02, -1.797E-01         F               0         Blade root 3 X orientation angle, node 1, rad
        116   -4.715E-02, -8.982E-01, -4.371E-01         F               0         Blade root 3 Y orientation angle, node 1, rad
        117   -1.770E-01,  4.382E-01, -8.813E-01         F               0         Blade root 3 Z orientation angle, node 1, rad
        118    1.915E+01                                 F               0         Blade 1 X translation displacement, node 1, m
        119   -4.018E+00                                 F               0         Blade 1 Y translation displacement, node 1, m
        120   -8.371E-01                                 F               0         Blade 1 Z translation displacement, node 1, m
        121    1.921E+01                                 F               0         Blade 1 X translation displacement, node 2, m
        122   -3.272E+00                                 F               0         Blade 1 Y translation displacement, node 2, m
        123   -1.078E+00                                 F               0         Blade 1 Z translation displacement, node 2, m
        124    2.012E+01                                 F               0         Blade 1 X translation displacement, node 3, m
        125    6.882E+00                                 F               0         Blade 1 Y translation displacement, node 3, m
        126   -4.347E+00                                 F               0         Blade 1 Z translation displacement, node 3, m
        127    2.032E+01                                 F               0         Blade 1 X translation displacement, node 4, m
        128    9.045E+00                                 F               0         Blade 1 Y translation displacement, node 4, m
        129   -5.044E+00                                 F               0         Blade 1 Z translation displacement, node 4, m
        130    2.051E+01                                 F               0         Blade 1 X translation displacement, node 5, m
        131    1.121E+01                                 F               0         Blade 1 Y translation displacement, node 5, m
        132   -5.740E+00                                 F               0         Blade 1 Z translation displacement, node 5, m
        133    2.070E+01                                 F               0         Blade 1 X translation displacement, node 6, m
        134    1.337E+01                                 F               0         Blade 1 Y translation displacement, node 6, m
        135   -6.437E+00                                 F               0         Blade 1 Z translation displacement, node 6, m
        136    2.090E+01                                 F               0         Blade 1 X translation displacement, node 7, m
        137    1.553E+01                                 F               0         Blade 1 Y translation displacement, node 7, m
        138   -7.134E+00                                 F               0         Blade 1 Z translation displacement, node 7, m
        139    2.109E+01                                 F               0         Blade 1 X translation displacement, node 8, m
        140    1.770E+01                                 F               0         Blade 1 Y translation displacement, node 8, m
        141   -7.830E+00                                 F               0         Blade 1 Z translation displacement, node 8, m
        142    2.128E+01                                 F               0         Blade 1 X translation displacement, node 9, m
        143    1.986E+01                                 F               0         Blade 1 Y translation displacement, node 9, m
        144   -8.527E+00                                 F               0         Blade 1 Z translation displacement, node 9, m
        145    2.148E+01                                 F               0         Blade 1 X translation displacement, node 10, m
        146    2.202E+01                                 F               0         Blade 1 Y translation displacement, node 10, m
        147   -9.224E+00                                 F               0         Blade 1 Z translation displacement, node 10, m
        148    2.167E+01                                 F               0         Blade 1 X translation displacement, node 11, m
        149    2.419E+01                                 F               0         Blade 1 Y translation displacement, node 11, m
        150   -9.920E+00                                 F               0         Blade 1 Z translation displacement, node 11, m
        151    2.187E+01                                 F               0         Blade 1 X translation displacement, node 12, m
        152    2.635E+01                                 F               0         Blade 1 Y translation displacement, node 12, m
        153   -1.062E+01                                 F               0         Blade 1 Z translation displacement, node 12, m
        154    2.206E+01                                 F               0         Blade 1 X translation displacement, node 13, m
        155    2.851E+01                                 F               0         Blade 1 Y translation displacement, node 13, m
        156   -1.131E+01                                 F               0         Blade 1 Z translation displacement, node 13, m
        157    2.225E+01                                 F               0         Blade 1 X translation displacement, node 14, m
        158    3.068E+01                                 F               0         Blade 1 Y translation displacement, node 14, m
        159   -1.201E+01                                 F               0         Blade 1 Z translation displacement, node 14, m
        160    2.245E+01                                 F               0         Blade 1 X translation displacement, node 15, m
        161    3.284E+01                                 F               0         Blade 1 Y translation displacement, node 15, m
        162   -1.271E+01                                 F               0         Blade 1 Z translation displacement, node 15, m
        163    2.264E+01                                 F               0         Blade 1 X translation displacement, node 16, m
        164    3.500E+01                                 F               0         Blade 1 Y translation displacement, node 16, m
        165   -1.340E+01                                 F               0         Blade 1 Z translation displacement, node 16, m
        166    2.283E+01                                 F               0         Blade 1 X translation displacement, node 17, m
        167    3.717E+01                                 F               0         Blade 1 Y translation displacement, node 17, m
        168   -1.410E+01                                 F               0         Blade 1 Z translation displacement, node 17, m
        169    2.303E+01                                 F               0         Blade 1 X translation displacement, node 18, m
        170    3.933E+01                                 F               0         Blade 1 Y translation displacement, node 18, m
        171   -1.480E+01                                 F               0         Blade 1 Z translation displacement, node 18, m
        172    2.322E+01                                 F               0         Blade 1 X translation displacement, node 19, m
        173    4.149E+01                                 F               0         Blade 1 Y translation displacement, node 19, m
        174   -1.549E+01                                 F               0         Blade 1 Z translation displacement, node 19, m
        175    2.341E+01                                 F               0         Blade 1 X translation displacement, node 20, m
        176    4.366E+01                                 F               0         Blade 1 Y translation displacement, node 20, m
        177   -1.619E+01                                 F               0         Blade 1 Z translation displacement, node 20, m
        178    2.361E+01                                 F               0         Blade 1 X translation displacement, node 21, m
        179    4.582E+01                                 F               0         Blade 1 Y translation displacement, node 21, m
        180   -1.689E+01                                 F               0         Blade 1 Z translation displacement, node 21, m
        181    2.380E+01                                 F               0         Blade 1 X translation displacement, node 22, m
        182    4.798E+01                                 F               0         Blade 1 Y translation displacement, node 22, m
        183   -1.758E+01                                 F               0         Blade 1 Z translation displacement, node 22, m
        184    2.400E+01                                 F               0         Blade 1 X translation displacement, node 23, m
        185    5.015E+01                                 F               0         Blade 1 Y translation displacement, node 23, m
        186   -1.828E+01                                 F               0         Blade 1 Z translation displacement, node 23, m
        187    2.419E+01                                 F               0         Blade 1 X translation displacement, node 24, m
        188    5.231E+01                                 F               0         Blade 1 Y translation displacement, node 24, m
        189   -1.898E+01                                 F               0         Blade 1 Z translation displacement, node 24, m
        190    2.438E+01                                 F               0         Blade 1 X translation displacement, node 25, m
        191    5.447E+01                                 F               0         Blade 1 Y translation displacement, node 25, m
        192   -1.967E+01                                 F               0         Blade 1 Z translation displacement, node 25, m
        193    2.458E+01                                 F               0         Blade 1 X translation displacement, node 26, m
        194    5.664E+01                                 F               0         Blade 1 Y translation displacement, node 26, m
        195   -2.037E+01                                 F               0         Blade 1 Z translation displacement, node 26, m
        196    2.477E+01                                 F               0         Blade 1 X translation displacement, node 27, m
        197    5.880E+01                                 F               0         Blade 1 Y translation displacement, node 27, m
        198   -2.107E+01                                 F               0         Blade 1 Z translation displacement, node 27, m
        199    2.493E+01                                 F               0         Blade 1 X translation displacement, node 28, m
        200    6.063E+01                                 F               0         Blade 1 Y translation displacement, node 28, m
        201   -2.166E+01                                 F               0         Blade 1 Z translation displacement, node 28, m
        202    9.152E-01, -3.917E-01,  9.528E-02         F               0         Blade 1 X orientation angle, node 1, rad
        203    3.723E-01,  7.306E-01, -5.724E-01         F               0         Blade 1 Y orientation angle, node 1, rad
        204    1.546E-01,  5.593E-01,  8.144E-01         F               0         Blade 1 Z orientation angle, node 1, rad
        205    9.152E-01, -3.917E-01,  9.528E-02         F               0         Blade 1 X orientation angle, node 2, rad
        206    3.723E-01,  7.306E-01, -5.724E-01         F               0         Blade 1 Y orientation angle, node 2, rad
        207    1.546E-01,  5.593E-01,  8.144E-01         F               0         Blade 1 Z orientation angle, node 2, rad
        208    9.773E-01, -2.074E-01, -4.311E-02         F               0         Blade 1 X orientation angle, node 3, rad
        209    1.448E-01,  8.026E-01, -5.787E-01         F               0         Blade 1 Y orientation angle, node 3, rad
        210    1.546E-01,  5.593E-01,  8.144E-01         F               0         Blade 1 Z orientation angle, node 3, rad
        211    9.826E-01, -1.733E-01, -6.750E-02         F               0         Blade 1 X orientation angle, node 4, rad
        212    1.034E-01,  8.106E-01, -5.764E-01         F               0         Blade 1 Y orientation angle, node 4, rad
        213    1.546E-01,  5.593E-01,  8.144E-01         F               0         Blade 1 Z orientation angle, node 4, rad
        214    9.854E-01, -1.463E-01, -8.658E-02         F               0         Blade 1 X orientation angle, node 5, rad
        215    7.073E-02,  8.159E-01, -5.738E-01         F               0         Blade 1 Y orientation angle, node 5, rad
        216    1.546E-01,  5.593E-01,  8.144E-01         F               0         Blade 1 Z orientation angle, node 5, rad
        217    9.870E-01, -1.246E-01, -1.018E-01         F               0         Blade 1 X orientation angle, node 6, rad
        218    4.457E-02,  8.195E-01, -5.713E-01         F               0         Blade 1 Y orientation angle, node 6, rad
        219    1.546E-01,  5.593E-01,  8.144E-01         F               0         Blade 1 Z orientation angle, node 6, rad
        220    9.877E-01, -1.067E-01, -1.142E-01         F               0         Blade 1 X orientation angle, node 7, rad
        221    2.303E-02,  8.221E-01, -5.689E-01         F               0         Blade 1 Y orientation angle, node 7, rad
        222    1.546E-01,  5.593E-01,  8.144E-01         F               0         Blade 1 Z orientation angle, node 7, rad
        223    9.880E-01, -9.177E-02, -1.245E-01         F               0         Blade 1 X orientation angle, node 8, rad
        224    5.096E-03,  8.239E-01, -5.668E-01         F               0         Blade 1 Y orientation angle, node 8, rad
        225    1.546E-01,  5.593E-01,  8.144E-01         F               0         Blade 1 Z orientation angle, node 8, rad
        226    9.879E-01, -7.911E-02, -1.332E-01         F               0         Blade 1 X orientation angle, node 9, rad
        227   -1.008E-02,  8.252E-01, -5.648E-01         F               0         Blade 1 Y orientation angle, node 9, rad