
Linearized model: Predictions were generated on 11-Jan-2024 at 12:32:35 using OpenFAST, compiled as a 64-bit application using single precision at commit v3.5.1
 linked with  NWTC Subroutine Library; ElastoDyn; InflowWind; AeroDyn; ServoDyn; HydroDyn; MoorDyn (v2.0.0, 2023-09-18)

Description from the FAST input file: CCT-9 Campign 4 model. Input files to be run with OpenFAST 3.5.0. GitHub branch from Lu Wang (https://github.com/luwang00/openfast/tree/dev) compiled on March 7, 2023.

Simulation information:
   Simulation time:                   508.6500 s
   Rotor Speed:                         0.7076 rad/s
   Azimuth:                             3.3764 rad
   Wind Speed:                          8.0000 m/s
   Number of continuous states:        22
   Number of discrete states:           0
   Number of constraint states:         0
   Number of inputs:                 4033
   Number of outputs:                  55
   Jacobians included in this file?    No

Order of continuous states:
   Row/Column Operating Point                     Rotating Frame? Derivative Order Description
   ---------- ---------------                     --------------- ---------------- -----------
          1    5.728E+00                                 F               2         ED Platform horizontal surge translation DOF (internal DOF index = DOF_Sg), m
          2   -4.456E-01                                 F               2         ED Platform horizontal sway translation DOF (internal DOF index = DOF_Sw), m
          3   -6.054E-02                                 F               2         ED Platform vertical heave translation DOF (internal DOF index = DOF_Hv), m
          4    4.355E-02                                 F               2         ED Platform roll tilt rotation DOF (internal DOF index = DOF_R), rad
          5    8.430E-02                                 F               2         ED Platform pitch tilt rotation DOF (internal DOF index = DOF_P), rad
          6    2.387E-03                                 F               2         ED Platform yaw rotation DOF (internal DOF index = DOF_Y), rad
          7    4.628E-01                                 F               2         ED 1st tower fore-aft bending mode DOF (internal DOF index = DOF_TFA1), m
          8    1.692E-01                                 F               2         ED 1st tower side-to-side bending mode DOF (internal DOF index = DOF_TSS1), m
          9    1.460E-03                                 F               2         ED 2nd tower fore-aft bending mode DOF (internal DOF index = DOF_TFA2), m
         10    7.411E-05                                 F               2         ED 2nd tower side-to-side bending mode DOF (internal DOF index = DOF_TSS2), m
         11    1.806E+00                                 F               2         ED Variable speed generator DOF (internal DOF index = DOF_GeAz), rad
         12   -5.534E-03                                 F               2         ED First time derivative of Platform horizontal surge translation DOF (internal DOF index = DOF_Sg), m/s
         13   -1.029E-03                                 F               2         ED First time derivative of Platform horizontal sway translation DOF (internal DOF index = DOF_Sw), m/s
         14    2.014E-03                                 F               2         ED First time derivative of Platform vertical heave translation DOF (internal DOF index = DOF_Hv), m/s
         15    1.372E-04                                 F               2         ED First time derivative of Platform roll tilt rotation DOF (internal DOF index = DOF_R), rad/s
         16    5.604E-06                                 F               2         ED First time derivative of Platform pitch tilt rotation DOF (internal DOF index = DOF_P), rad/s
         17   -1.845E-05                                 F               2         ED First time derivative of Platform yaw rotation DOF (internal DOF index = DOF_Y), rad/s
         18    4.792E-04                                 F               2         ED First time derivative of 1st tower fore-aft bending mode DOF (internal DOF index = DOF_TFA1), m/s
         19    6.212E-04                                 F               2         ED First time derivative of 1st tower side-to-side bending mode DOF (internal DOF index = DOF_TSS1), m/s
         20   -9.623E-07                                 F               2         ED First time derivative of 2nd tower fore-aft bending mode DOF (internal DOF index = DOF_TFA2), m/s
         21    5.886E-07                                 F               2         ED First time derivative of 2nd tower side-to-side bending mode DOF (internal DOF index = DOF_TSS2), m/s
         22    7.076E-01                                 F               2         ED First time derivative of Variable speed generator DOF (internal DOF index = DOF_GeAz), rad/s

Order of continuous state derivatives:
   Row/Column Operating Point                     Rotating Frame? Derivative Order Description
   ---------- ---------------                     --------------- ---------------- -----------
          1   -5.534E-03                                 F               2         First time derivative of ED Platform horizontal surge translation DOF (internal DOF index = DOF_Sg), m/s
          2   -1.029E-03                                 F               2         First time derivative of ED Platform horizontal sway translation DOF (internal DOF index = DOF_Sw), m/s
          3    2.014E-03                                 F               2         First time derivative of ED Platform vertical heave translation DOF (internal DOF index = DOF_Hv), m/s
          4    1.372E-04                                 F               2         First time derivative of ED Platform roll tilt rotation DOF (internal DOF index = DOF_R), rad/s
          5    5.604E-06                                 F               2         First time derivative of ED Platform pitch tilt rotation DOF (internal DOF index = DOF_P), rad/s
          6   -1.845E-05                                 F               2         First time derivative of ED Platform yaw rotation DOF (internal DOF index = DOF_Y), rad/s
          7    4.792E-04                                 F               2         First time derivative of ED 1st tower fore-aft bending mode DOF (internal DOF index = DOF_TFA1), m/s
          8    6.212E-04                                 F               2         First time derivative of ED 1st tower side-to-side bending mode DOF (internal DOF index = DOF_TSS1), m/s
          9   -9.623E-07                                 F               2         First time derivative of ED 2nd tower fore-aft bending mode DOF (internal DOF index = DOF_TFA2), m/s
         10    5.886E-07                                 F               2         First time derivative of ED 2nd tower side-to-side bending mode DOF (internal DOF index = DOF_TSS2), m/s
         11    7.076E-01                                 F               2         First time derivative of ED Variable speed generator DOF (internal DOF index = DOF_GeAz), rad/s
         12   -7.372E-05                                 F               2         First time derivative of ED First time derivative of Platform horizontal surge translation DOF (internal DOF index = DOF_Sg), m/s/s
         13   -5.190E-04                                 F               2         First time derivative of ED First time derivative of Platform horizontal sway translation DOF (internal DOF index = DOF_Sw), m/s/s
         14   -1.407E-03                                 F               2         First time derivative of ED First time derivative of Platform vertical heave translation DOF (internal DOF index = DOF_Hv), m/s/s
         15    2.841E-05                                 F               2         First time derivative of ED First time derivative of Platform roll tilt rotation DOF (internal DOF index = DOF_R), rad/s/s
         16   -4.541E-06                                 F               2         First time derivative of ED First time derivative of Platform pitch tilt rotation DOF (internal DOF index = DOF_P), rad/s/s
         17   -1.132E-06                                 F               2         First time derivative of ED First time derivative of Platform yaw rotation DOF (internal DOF index = DOF_Y), rad/s/s
         18   -1.768E-04                                 F               2         First time derivative of ED First time derivative of 1st tower fore-aft bending mode DOF (internal DOF index = DOF_TFA1), m/s/s
         19    1.177E-04                                 F               2         First time derivative of ED First time derivative of 1st tower side-to-side bending mode DOF (internal DOF index = DOF_TSS1), m/s/s
         20   -7.645E-07                                 F               2         First time derivative of ED First time derivative of 2nd tower fore-aft bending mode DOF (internal DOF index = DOF_TFA2), m/s/s
         21    2.220E-07                                 F               2         First time derivative of ED First time derivative of 2nd tower side-to-side bending mode DOF (internal DOF index = DOF_TSS2), m/s/s
         22    1.145E-04                                 F               2         First time derivative of ED First time derivative of Variable speed generator DOF (internal DOF index = DOF_GeAz), rad/s/s

Order of inputs:
     Column   Operating Point                     Rotating Frame? Derivative Order Description
   ---------- ---------------                     --------------- ---------------- -----------
          1   -1.080E+01                                 F               0         IfW X-component position of node 1 (hub), m
          2    0.000E+00                                 F               0         IfW Y-component position of node 1 (hub), m
          3    1.497E+02                                 F               0         IfW Z-component position of node 1 (hub), m
          4    7.008E+00                                 F               0         IfW X-component position of node 2 (blade 1, node 1), m
          5   -5.626E+00                                 F               0         IfW Y-component position of node 2 (blade 1, node 1), m
          6    1.447E+02                                 F               0         IfW Z-component position of node 2 (blade 1, node 1), m
          7    6.758E+00                                 F               0         IfW X-component position of node 3 (blade 1, node 2), m
          8   -5.258E+00                                 F               0         IfW Y-component position of node 3 (blade 1, node 2), m
          9    1.434E+02                                 F               0         IfW Z-component position of node 3 (blade 1, node 2), m
         10    3.352E+00                                 F               0         IfW X-component position of node 4 (blade 1, node 3), m
         11   -2.512E-01                                 F               0         IfW Y-component position of node 4 (blade 1, node 3), m
         12    1.263E+02                                 F               0         IfW Z-component position of node 4 (blade 1, node 3), m
         13    2.626E+00                                 F               0         IfW X-component position of node 5 (blade 1, node 4), m
         14    8.156E-01                                 F               0         IfW Y-component position of node 5 (blade 1, node 4), m
         15    1.227E+02                                 F               0         IfW Z-component position of node 5 (blade 1, node 4), m
         16    1.901E+00                                 F               0         IfW X-component position of node 6 (blade 1, node 5), m
         17    1.882E+00                                 F               0         IfW Y-component position of node 6 (blade 1, node 5), m
         18    1.190E+02                                 F               0         IfW Z-component position of node 6 (blade 1, node 5), m
         19    1.175E+00                                 F               0         IfW X-component position of node 7 (blade 1, node 6), m
         20    2.949E+00                                 F               0         IfW Y-component position of node 7 (blade 1, node 6), m
         21    1.154E+02                                 F               0         IfW Z-component position of node 7 (blade 1, node 6), m
         22    4.493E-01                                 F               0         IfW X-component position of node 8 (blade 1, node 7), m
         23    4.016E+00                                 F               0         IfW Y-component position of node 8 (blade 1, node 7), m
         24    1.117E+02                                 F               0         IfW Z-component position of node 8 (blade 1, node 7), m
         25   -2.765E-01                                 F               0         IfW X-component position of node 9 (blade 1, node 8), m
         26    5.083E+00                                 F               0         IfW Y-component position of node 9 (blade 1, node 8), m
         27    1.081E+02                                 F               0         IfW Z-component position of node 9 (blade 1, node 8), m
         28   -1.002E+00                                 F               0         IfW X-component position of node 10 (blade 1, node 9), m
         29    6.150E+00                                 F               0         IfW Y-component position of node 10 (blade 1, node 9), m
         30    1.044E+02                                 F               0         IfW Z-component position of node 10 (blade 1, node 9), m
         31   -1.728E+00                                 F               0         IfW X-component position of node 11 (blade 1, node 10), m
         32    7.216E+00                                 F               0         IfW Y-component position of node 11 (blade 1, node 10), m
         33    1.008E+02                                 F               0         IfW Z-component position of node 11 (blade 1, node 10), m
         34   -2.453E+00                                 F               0         IfW X-component position of node 12 (blade 1, node 11), m
         35    8.283E+00                                 F               0         IfW Y-component position of node 12 (blade 1, node 11), m
         36    9.716E+01                                 F               0         IfW Z-component position of node 12 (blade 1, node 11), m
         37   -3.179E+00                                 F               0         IfW X-component position of node 13 (blade 1, node 12), m
         38    9.350E+00                                 F               0         IfW Y-component position of node 13 (blade 1, node 12), m
         39    9.351E+01                                 F               0         IfW Z-component position of node 13 (blade 1, node 12), m
         40   -3.905E+00                                 F               0         IfW X-component position of node 14 (blade 1, node 13), m
         41    1.042E+01                                 F               0         IfW Y-component position of node 14 (blade 1, node 13), m
         42    8.987E+01                                 F               0         IfW Z-component position of node 14 (blade 1, node 13), m
         43   -4.631E+00                                 F               0         IfW X-component position of node 15 (blade 1, node 14), m
         44    1.148E+01                                 F               0         IfW Y-component position of node 15 (blade 1, node 14), m
         45    8.622E+01                                 F               0         IfW Z-component position of node 15 (blade 1, node 14), m
         46   -5.356E+00                                 F               0         IfW X-component position of node 16 (blade 1, node 15), m
         47    1.255E+01                                 F               0         IfW Y-component position of node 16 (blade 1, node 15), m
         48    8.257E+01                                 F               0         IfW Z-component position of node 16 (blade 1, node 15), m
         49   -6.082E+00                                 F               0         IfW X-component position of node 17 (blade 1, node 16), m
         50    1.362E+01                                 F               0         IfW Y-component position of node 17 (blade 1, node 16), m
         51    7.893E+01                                 F               0         IfW Z-component position of node 17 (blade 1, node 16), m
         52   -6.808E+00                                 F               0         IfW X-component position of node 18 (blade 1, node 17), m
         53    1.468E+01                                 F               0         IfW Y-component position of node 18 (blade 1, node 17), m
         54    7.528E+01                                 F               0         IfW Z-component position of node 18 (blade 1, node 17), m
         55   -7.533E+00                                 F               0         IfW X-component position of node 19 (blade 1, node 18), m
         56    1.575E+01                                 F               0         IfW Y-component position of node 19 (blade 1, node 18), m
         57    7.163E+01                                 F               0         IfW Z-component position of node 19 (blade 1, node 18), m
         58   -8.259E+00                                 F               0         IfW X-component position of node 20 (blade 1, node 19), m
         59    1.682E+01                                 F               0         IfW Y-component position of node 20 (blade 1, node 19), m
         60    6.799E+01                                 F               0         IfW Z-component position of node 20 (blade 1, node 19), m
         61   -8.985E+00                                 F               0         IfW X-component position of node 21 (blade 1, node 20), m
         62    1.788E+01                                 F               0         IfW Y-component position of node 21 (blade 1, node 20), m
         63    6.434E+01                                 F               0         IfW Z-component position of node 21 (blade 1, node 20), m
         64   -9.710E+00                                 F               0         IfW X-component position of node 22 (blade 1, node 21), m
         65    1.895E+01                                 F               0         IfW Y-component position of node 22 (blade 1, node 21), m
         66    6.070E+01                                 F               0         IfW Z-component position of node 22 (blade 1, node 21), m
         67   -1.044E+01                                 F               0         IfW X-component position of node 23 (blade 1, node 22), m
         68    2.002E+01                                 F               0         IfW Y-component position of node 23 (blade 1, node 22), m
         69    5.705E+01                                 F               0         IfW Z-component position of node 23 (blade 1, node 22), m
         70   -1.116E+01                                 F               0         IfW X-component position of node 24 (blade 1, node 23), m
         71    2.108E+01                                 F               0         IfW Y-component position of node 24 (blade 1, node 23), m
         72    5.340E+01                                 F               0         IfW Z-component position of node 24 (blade 1, node 23), m
         73   -1.189E+01                                 F               0         IfW X-component position of node 25 (blade 1, node 24), m
         74    2.215E+01                                 F               0         IfW Y-component position of node 25 (blade 1, node 24), m
         75    4.976E+01                                 F               0         IfW Z-component position of node 25 (blade 1, node 24), m
         76   -1.261E+01                                 F               0         IfW X-component position of node 26 (blade 1, node 25), m
         77    2.322E+01                                 F               0         IfW Y-component position of node 26 (blade 1, node 25), m
         78    4.611E+01                                 F               0         IfW Z-component position of node 26 (blade 1, node 25), m
         79   -1.334E+01                                 F               0         IfW X-component position of node 27 (blade 1, node 26), m
         80    2.429E+01                                 F               0         IfW Y-component position of node 27 (blade 1, node 26), m
         81    4.247E+01                                 F               0         IfW Z-component position of node 27 (blade 1, node 26), m
         82   -1.406E+01                                 F               0         IfW X-component position of node 28 (blade 1, node 27), m
         83    2.535E+01                                 F               0         IfW Y-component position of node 28 (blade 1, node 27), m
         84    3.882E+01                                 F               0         IfW Z-component position of node 28 (blade 1, node 27), m
         85   -1.468E+01                                 F               0         IfW X-component position of node 29 (blade 1, node 28), m
         86    2.626E+01                                 F               0         IfW Y-component position of node 29 (blade 1, node 28), m
         87    3.573E+01                                 F               0         IfW Z-component position of node 29 (blade 1, node 28), m
         88    8.781E+00                                 F               0         IfW X-component position of node 30 (blade 2, node 1), m
         89   -3.307E+00                                 F               0         IfW Y-component position of node 30 (blade 2, node 1), m
         90    1.538E+02                                 F               0         IfW Z-component position of node 30 (blade 2, node 1), m
         91    8.958E+00                                 F               0         IfW X-component position of node 31 (blade 2, node 2), m
         92   -2.380E+00                                 F               0         IfW Y-component position of node 31 (blade 2, node 2), m
         93    1.548E+02                                 F               0         IfW Z-component position of node 31 (blade 2, node 2), m
         94    1.136E+01                                 F               0         IfW X-component position of node 32 (blade 2, node 3), m
         95    1.023E+01                                 F               0         IfW Y-component position of node 32 (blade 2, node 3), m
         96    1.676E+02                                 F               0         IfW Z-component position of node 32 (blade 2, node 3), m
         97    1.187E+01                                 F               0         IfW X-component position of node 33 (blade 2, node 4), m
         98    1.291E+01                                 F               0         IfW Y-component position of node 33 (blade 2, node 4), m
         99    1.704E+02                                 F               0         IfW Z-component position of node 33 (blade 2, node 4), m
        100    1.238E+01                                 F               0         IfW X-component position of node 34 (blade 2, node 5), m
        101    1.560E+01                                 F               0         IfW Y-component position of node 34 (blade 2, node 5), m
        102    1.731E+02                                 F               0         IfW Z-component position of node 34 (blade 2, node 5), m
        103    1.290E+01                                 F               0         IfW X-component position of node 35 (blade 2, node 6), m
        104    1.829E+01                                 F               0         IfW Y-component position of node 35 (blade 2, node 6), m
        105    1.758E+02                                 F               0         IfW Z-component position of node 35 (blade 2, node 6), m
        106    1.341E+01                                 F               0         IfW X-component position of node 36 (blade 2, node 7), m
        107    2.097E+01                                 F               0         IfW Y-component position of node 36 (blade 2, node 7), m
        108    1.786E+02                                 F               0         IfW Z-component position of node 36 (blade 2, node 7), m
        109    1.392E+01                                 F               0         IfW X-component position of node 37 (blade 2, node 8), m
        110    2.366E+01                                 F               0         IfW Y-component position of node 37 (blade 2, node 8), m
        111    1.813E+02                                 F               0         IfW Z-component position of node 37 (blade 2, node 8), m
        112    1.443E+01                                 F               0         IfW X-component position of node 38 (blade 2, node 9), m
        113    2.634E+01                                 F               0         IfW Y-component position of node 38 (blade 2, node 9), m
        114    1.840E+02                                 F               0         IfW Z-component position of node 38 (blade 2, node 9), m
        115    1.494E+01                                 F               0         IfW X-component position of node 39 (blade 2, node 10), m
        116    2.903E+01                                 F               0         IfW Y-component position of node 39 (blade 2, node 10), m
        117    1.868E+02                                 F               0         IfW Z-component position of node 39 (blade 2, node 10), m
        118    1.546E+01                                 F               0         IfW X-component position of node 40 (blade 2, node 11), m
        119    3.172E+01                                 F               0         IfW Y-component position of node 40 (blade 2, node 11), m
        120    1.895E+02                                 F               0         IfW Z-component position of node 40 (blade 2, node 11), m
        121    1.597E+01                                 F               0         IfW X-component position of node 41 (blade 2, node 12), m
        122    3.440E+01                                 F               0         IfW Y-component position of node 41 (blade 2, node 12), m
        123    1.922E+02                                 F               0         IfW Z-component position of node 41 (blade 2, node 12), m
        124    1.648E+01                                 F               0         IfW X-component position of node 42 (blade 2, node 13), m
        125    3.709E+01                                 F               0         IfW Y-component position of node 42 (blade 2, node 13), m
        126    1.950E+02                                 F               0         IfW Z-component position of node 42 (blade 2, node 13), m
        127    1.699E+01                                 F               0         IfW X-component position of node 43 (blade 2, node 14), m
        128    3.977E+01                                 F               0         IfW Y-component position of node 43 (blade 2, node 14), m
        129    1.977E+02                                 F               0         IfW Z-component position of node 43 (blade 2, node 14), m
        130    1.750E+01                                 F               0         IfW X-component position of node 44 (blade 2, node 15), m
        131    4.246E+01                                 F               0         IfW Y-component position of node 44 (blade 2, node 15), m
        132    2.004E+02                                 F               0         IfW Z-component position of node 44 (blade 2, node 15), m
        133    1.802E+01                                 F               0         IfW X-component position of node 45 (blade 2, node 16), m
        134    4.515E+01                                 F               0         IfW Y-component position of node 45 (blade 2, node 16), m
        135    2.032E+02                                 F               0         IfW Z-component position of node 45 (blade 2, node 16), m
        136    1.853E+01                                 F               0         IfW X-component position of node 46 (blade 2, node 17), m
        137    4.783E+01                                 F               0         IfW Y-component position of node 46 (blade 2, node 17), m
        138    2.059E+02                                 F               0         IfW Z-component position of node 46 (blade 2, node 17), m
        139    1.904E+01                                 F               0         IfW X-component position of node 47 (blade 2, node 18), m
        140    5.052E+01                                 F               0         IfW Y-component position of node 47 (blade 2, node 18), m
        141    2.087E+02                                 F               0         IfW Z-component position of node 47 (blade 2, node 18), m
        142    1.955E+01                                 F               0         IfW X-component position of node 48 (blade 2, node 19), m
        143    5.320E+01                                 F               0         IfW Y-component position of node 48 (blade 2, node 19), m
        144    2.114E+02                                 F               0         IfW Z-component position of node 48 (blade 2, node 19), m