
Linearized model: Predictions were generated on 11-Jan-2024 at 12:32:35 using OpenFAST, compiled as a 64-bit application using single precision at commit v3.5.1
 linked with  NWTC Subroutine Library; ElastoDyn; InflowWind; AeroDyn; ServoDyn; HydroDyn; MoorDyn (v2.0.0, 2023-09-18)

Description from the FAST input file: CCT-9 Campign 4 model. Input files to be run with OpenFAST 3.5.0. GitHub branch from Lu Wang (https://github.com/luwang00/openfast/tree/dev) compiled on March 7, 2023.

Simulation information:
   Simulation time:                   500.2500 s
   Rotor Speed:                         0.7077 rad/s
   Azimuth:                             3.7169 rad
   Wind Speed:                          8.0000 m/s
   Number of continuous states:         0
   Number of discrete states:           0
   Number of constraint states:         0
   Number of inputs:                   54
   Number of outputs:                   0
   Jacobians included in this file?    No

Order of inputs:
     Column   Operating Point                     Rotating Frame? Derivative Order Description
   ---------- ---------------                     --------------- ---------------- -----------
          1    4.491E+00                                 F               0         CoupledKinematics X translation displacement, node 1, m
          2    3.428E-01                                 F               0         CoupledKinematics Y translation displacement, node 1, m
          3   -4.752E+00                                 F               0         CoupledKinematics Z translation displacement, node 1, m
          4    4.431E+00                                 F               0         CoupledKinematics X translation displacement, node 2, m
          5    2.431E-01                                 F               0         CoupledKinematics Y translation displacement, node 2, m
          6   -2.307E-01                                 F               0         CoupledKinematics Z translation displacement, node 2, m
          7    4.774E+00                                 F               0         CoupledKinematics X translation displacement, node 3, m
          8   -8.373E-02                                 F               0         CoupledKinematics Y translation displacement, node 3, m
          9    4.953E+00                                 F               0         CoupledKinematics Z translation displacement, node 3, m
         10    9.965E-01,  4.239E-03, -8.379E-02         F               0         CoupledKinematics X orientation angle, node 1, rad
         11   -6.068E-04,  9.991E-01,  4.333E-02         F               0         CoupledKinematics Y orientation angle, node 1, rad
         12    8.390E-02, -4.312E-02,  9.955E-01         F               0         CoupledKinematics Z orientation angle, node 1, rad
         13    9.965E-01,  4.239E-03, -8.379E-02         F               0         CoupledKinematics X orientation angle, node 2, rad
         14   -6.068E-04,  9.991E-01,  4.333E-02         F               0         CoupledKinematics Y orientation angle, node 2, rad
         15    8.390E-02, -4.312E-02,  9.955E-01         F               0         CoupledKinematics Z orientation angle, node 2, rad
         16    9.965E-01,  4.239E-03, -8.379E-02         F               0         CoupledKinematics X orientation angle, node 3, rad
         17   -6.068E-04,  9.991E-01,  4.333E-02         F               0         CoupledKinematics Y orientation angle, node 3, rad
         18    8.390E-02, -4.312E-02,  9.955E-01         F               0         CoupledKinematics Z orientation angle, node 3, rad
         19   -3.268E-03                                 F               0         CoupledKinematics X translation velocity, node 1, m/s
         20    6.757E-04                                 F               0         CoupledKinematics Y translation velocity, node 1, m/s
         21    3.955E-03                                 F               0         CoupledKinematics Z translation velocity, node 1, m/s
         22   -4.777E-03                                 F               0         CoupledKinematics X translation velocity, node 2, m/s
         23    9.999E-04                                 F               0         CoupledKinematics Y translation velocity, node 2, m/s
         24   -3.677E-03                                 F               0         CoupledKinematics Z translation velocity, node 2, m/s
         25   -3.944E-03                                 F               0         CoupledKinematics X translation velocity, node 3, m/s
         26    5.394E-05                                 F               0         CoupledKinematics Y translation velocity, node 3, m/s
         27    1.032E-03                                 F               0         CoupledKinematics Z translation velocity, node 3, m/s
         28   -7.424E-05                                 F               0         CoupledKinematics X rotation velocity, node 1, rad/s
         29    9.767E-06                                 F               0         CoupledKinematics Y rotation velocity, node 1, rad/s
         30    1.510E-05                                 F               0         CoupledKinematics Z rotation velocity, node 1, rad/s
         31   -7.424E-05                                 F               0         CoupledKinematics X rotation velocity, node 2, rad/s
         32    9.767E-06                                 F               0         CoupledKinematics Y rotation velocity, node 2, rad/s
         33    1.510E-05                                 F               0         CoupledKinematics Z rotation velocity, node 2, rad/s
         34   -7.424E-05                                 F               0         CoupledKinematics X rotation velocity, node 3, rad/s
         35    9.767E-06                                 F               0         CoupledKinematics Y rotation velocity, node 3, rad/s
         36    1.510E-05                                 F               0         CoupledKinematics Z rotation velocity, node 3, rad/s
         37   -5.740E-04                                 F               0         CoupledKinematics X translation acceleration, node 1, m/s^2
         38    6.736E-05                                 F               0         CoupledKinematics Y translation acceleration, node 1, m/s^2
         39   -4.671E-04                                 F               0         CoupledKinematics Z translation acceleration, node 1, m/s^2
         40   -1.520E-04                                 F               0         CoupledKinematics X translation acceleration, node 2, m/s^2
         41   -7.904E-05                                 F               0         CoupledKinematics Y translation acceleration, node 2, m/s^2
         42    2.922E-03                                 F               0         CoupledKinematics Z translation acceleration, node 2, m/s^2
         43   -3.457E-04                                 F               0         CoupledKinematics X translation acceleration, node 3, m/s^2
         44    1.025E-04                                 F               0         CoupledKinematics Y translation acceleration, node 3, m/s^2
         45    1.438E-03                                 F               0         CoupledKinematics Z translation acceleration, node 3, m/s^2
         46    3.292E-05                                 F               0         CoupledKinematics X rotation acceleration, node 1, rad/s^2
         47    2.517E-06                                 F               0         CoupledKinematics Y rotation acceleration, node 1, rad/s^2
         48   -3.991E-06                                 F               0         CoupledKinematics Z rotation acceleration, node 1, rad/s^2
         49    3.292E-05                                 F               0         CoupledKinematics X rotation acceleration, node 2, rad/s^2
         50    2.517E-06                                 F               0         CoupledKinematics Y rotation acceleration, node 2, rad/s^2
         51   -3.991E-06                                 F               0         CoupledKinematics Z rotation acceleration, node 2, rad/s^2
         52    3.292E-05                                 F               0         CoupledKinematics X rotation acceleration, node 3, rad/s^2
         53    2.517E-06                                 F               0         CoupledKinematics Y rotation acceleration, node 3, rad/s^2
         54   -3.991E-06                                 F               0         CoupledKinematics Z rotation acceleration, node 3, rad/s^2


Linearized state matrices:

