
Linearized model: Predictions were generated on 11-Jan-2024 at 12:32:35 using OpenFAST, compiled as a 64-bit application using single precision at commit v3.5.1
 linked with  NWTC Subroutine Library; ElastoDyn; InflowWind; AeroDyn; ServoDyn; HydroDyn; MoorDyn (v2.0.0, 2023-09-18)

Description from the FAST input file: CCT-9 Campign 4 model. Input files to be run with OpenFAST 3.5.0. GitHub branch from Lu Wang (https://github.com/luwang00/openfast/tree/dev) compiled on March 7, 2023.

Simulation information:
   Simulation time:                   501.5000 s
   Rotor Speed:                         0.7077 rad/s
   Azimuth:                             4.6016 rad
   Wind Speed:                          8.0000 m/s
   Number of continuous states:        22
   Number of discrete states:           0
   Number of constraint states:         0
   Number of inputs:                 4033
   Number of outputs:                  55
   Jacobians included in this file?    No

Order of continuous states:
   Row/Column Operating Point                     Rotating Frame? Derivative Order Description
   ---------- ---------------                     --------------- ---------------- -----------
          1    5.764E+00                                 F               2         ED Platform horizontal surge translation DOF (internal DOF index = DOF_Sg), m
          2   -4.494E-01                                 F               2         ED Platform horizontal sway translation DOF (internal DOF index = DOF_Sw), m
          3   -8.628E-02                                 F               2         ED Platform vertical heave translation DOF (internal DOF index = DOF_Hv), m
          4    4.335E-02                                 F               2         ED Platform roll tilt rotation DOF (internal DOF index = DOF_R), rad
          5    8.423E-02                                 F               2         ED Platform pitch tilt rotation DOF (internal DOF index = DOF_P), rad
          6    2.450E-03                                 F               2         ED Platform yaw rotation DOF (internal DOF index = DOF_Y), rad
          7    4.620E-01                                 F               2         ED 1st tower fore-aft bending mode DOF (internal DOF index = DOF_TFA1), m
          8    1.671E-01                                 F               2         ED 1st tower side-to-side bending mode DOF (internal DOF index = DOF_TSS1), m
          9    1.463E-03                                 F               2         ED 2nd tower fore-aft bending mode DOF (internal DOF index = DOF_TFA2), m
         10    7.461E-05                                 F               2         ED 2nd tower side-to-side bending mode DOF (internal DOF index = DOF_TSS2), m
         11    3.031E+00                                 F               2         ED Variable speed generator DOF (internal DOF index = DOF_GeAz), rad
         12   -4.282E-03                                 F               2         ED First time derivative of Platform horizontal surge translation DOF (internal DOF index = DOF_Sg), m/s
         13    1.226E-03                                 F               2         ED First time derivative of Platform horizontal sway translation DOF (internal DOF index = DOF_Sw), m/s
         14    1.966E-03                                 F               2         ED First time derivative of Platform vertical heave translation DOF (internal DOF index = DOF_Hv), m/s
         15   -3.919E-05                                 F               2         ED First time derivative of Platform roll tilt rotation DOF (internal DOF index = DOF_R), rad/s
         16    9.167E-06                                 F               2         ED First time derivative of Platform pitch tilt rotation DOF (internal DOF index = DOF_P), rad/s
         17    1.003E-05                                 F               2         ED First time derivative of Platform yaw rotation DOF (internal DOF index = DOF_Y), rad/s
         18   -3.190E-04                                 F               2         ED First time derivative of 1st tower fore-aft bending mode DOF (internal DOF index = DOF_TFA1), m/s
         19   -8.189E-04                                 F               2         ED First time derivative of 1st tower side-to-side bending mode DOF (internal DOF index = DOF_TSS1), m/s
         20    9.888E-07                                 F               2         ED First time derivative of 2nd tower fore-aft bending mode DOF (internal DOF index = DOF_TFA2), m/s
         21    6.626E-07                                 F               2         ED First time derivative of 2nd tower side-to-side bending mode DOF (internal DOF index = DOF_TSS2), m/s
         22    7.077E-01                                 F               2         ED First time derivative of Variable speed generator DOF (internal DOF index = DOF_GeAz), rad/s

Order of continuous state derivatives:
   Row/Column Operating Point                     Rotating Frame? Derivative Order Description
   ---------- ---------------                     --------------- ---------------- -----------
          1   -4.282E-03                                 F               2         First time derivative of ED Platform horizontal surge translation DOF (internal DOF index = DOF_Sg), m/s
          2    1.226E-03                                 F               2         First time derivative of ED Platform horizontal sway translation DOF (internal DOF index = DOF_Sw), m/s
          3    1.966E-03                                 F               2         First time derivative of ED Platform vertical heave translation DOF (internal DOF index = DOF_Hv), m/s
          4   -3.919E-05                                 F               2         First time derivative of ED Platform roll tilt rotation DOF (internal DOF index = DOF_R), rad/s
          5    9.167E-06                                 F               2         First time derivative of ED Platform pitch tilt rotation DOF (internal DOF index = DOF_P), rad/s
          6    1.003E-05                                 F               2         First time derivative of ED Platform yaw rotation DOF (internal DOF index = DOF_Y), rad/s
          7   -3.190E-04                                 F               2         First time derivative of ED 1st tower fore-aft bending mode DOF (internal DOF index = DOF_TFA1), m/s
          8   -8.189E-04                                 F               2         First time derivative of ED 1st tower side-to-side bending mode DOF (internal DOF index = DOF_TSS1), m/s
          9    9.888E-07                                 F               2         First time derivative of ED 2nd tower fore-aft bending mode DOF (internal DOF index = DOF_TFA2), m/s
         10    6.626E-07                                 F               2         First time derivative of ED 2nd tower side-to-side bending mode DOF (internal DOF index = DOF_TSS2), m/s
         11    7.077E-01                                 F               2         First time derivative of ED Variable speed generator DOF (internal DOF index = DOF_GeAz), rad/s
         12   -4.150E-04                                 F               2         First time derivative of ED First time derivative of Platform horizontal surge translation DOF (internal DOF index = DOF_Sg), m/s/s
         13   -2.259E-04                                 F               2         First time derivative of ED First time derivative of Platform horizontal sway translation DOF (internal DOF index = DOF_Sw), m/s/s
         14    1.107E-03                                 F               2         First time derivative of ED First time derivative of Platform vertical heave translation DOF (internal DOF index = DOF_Hv), m/s/s
         15    2.154E-05                                 F               2         First time derivative of ED First time derivative of Platform roll tilt rotation DOF (internal DOF index = DOF_R), rad/s/s
         16   -6.320E-06                                 F               2         First time derivative of ED First time derivative of Platform pitch tilt rotation DOF (internal DOF index = DOF_P), rad/s/s
         17   -5.097E-06                                 F               2         First time derivative of ED First time derivative of Platform yaw rotation DOF (internal DOF index = DOF_Y), rad/s/s
         18    8.898E-04                                 F               2         First time derivative of ED First time derivative of 1st tower fore-aft bending mode DOF (internal DOF index = DOF_TFA1), m/s/s
         19    8.869E-05                                 F               2         First time derivative of ED First time derivative of 1st tower side-to-side bending mode DOF (internal DOF index = DOF_TSS1), m/s/s
         20   -4.002E-06                                 F               2         First time derivative of ED First time derivative of 2nd tower fore-aft bending mode DOF (internal DOF index = DOF_TFA2), m/s/s
         21   -2.226E-06                                 F               2         First time derivative of ED First time derivative of 2nd tower side-to-side bending mode DOF (internal DOF index = DOF_TSS2), m/s/s
         22   -7.670E-05                                 F               2         First time derivative of ED First time derivative of Variable speed generator DOF (internal DOF index = DOF_GeAz), rad/s/s

Order of inputs:
     Column   Operating Point                     Rotating Frame? Derivative Order Description
   ---------- ---------------                     --------------- ---------------- -----------
          1   -1.080E+01                                 F               0         IfW X-component position of node 1 (hub), m
          2    0.000E+00                                 F               0         IfW Y-component position of node 1 (hub), m
          3    1.497E+02                                 F               0         IfW Z-component position of node 1 (hub), m
          4    7.953E+00                                 F               0         IfW X-component position of node 2 (blade 1, node 1), m
          5   -1.598E+00                                 F               0         IfW Y-component position of node 2 (blade 1, node 1), m
          6    1.495E+02                                 F               0         IfW Z-component position of node 2 (blade 1, node 1), m
          7    7.924E+00                                 F               0         IfW X-component position of node 3 (blade 1, node 2), m
          8   -2.661E-01                                 F               0         IfW Y-component position of node 3 (blade 1, node 2), m
          9    1.495E+02                                 F               0         IfW Z-component position of node 3 (blade 1, node 2), m
         10    7.529E+00                                 F               0         IfW X-component position of node 4 (blade 1, node 3), m
         11    1.785E+01                                 F               0         IfW Y-component position of node 4 (blade 1, node 3), m
         12    1.483E+02                                 F               0         IfW Z-component position of node 4 (blade 1, node 3), m
         13    7.445E+00                                 F               0         IfW X-component position of node 5 (blade 1, node 4), m
         14    2.170E+01                                 F               0         IfW Y-component position of node 5 (blade 1, node 4), m
         15    1.481E+02                                 F               0         IfW Z-component position of node 5 (blade 1, node 4), m
         16    7.361E+00                                 F               0         IfW X-component position of node 6 (blade 1, node 5), m
         17    2.556E+01                                 F               0         IfW Y-component position of node 6 (blade 1, node 5), m
         18    1.478E+02                                 F               0         IfW Z-component position of node 6 (blade 1, node 5), m
         19    7.277E+00                                 F               0         IfW X-component position of node 7 (blade 1, node 6), m
         20    2.942E+01                                 F               0         IfW Y-component position of node 7 (blade 1, node 6), m
         21    1.476E+02                                 F               0         IfW Z-component position of node 7 (blade 1, node 6), m
         22    7.192E+00                                 F               0         IfW X-component position of node 8 (blade 1, node 7), m
         23    3.328E+01                                 F               0         IfW Y-component position of node 8 (blade 1, node 7), m
         24    1.473E+02                                 F               0         IfW Z-component position of node 8 (blade 1, node 7), m
         25    7.108E+00                                 F               0         IfW X-component position of node 9 (blade 1, node 8), m
         26    3.714E+01                                 F               0         IfW Y-component position of node 9 (blade 1, node 8), m
         27    1.471E+02                                 F               0         IfW Z-component position of node 9 (blade 1, node 8), m
         28    7.024E+00                                 F               0         IfW X-component position of node 10 (blade 1, node 9), m
         29    4.100E+01                                 F               0         IfW Y-component position of node 10 (blade 1, node 9), m
         30    1.468E+02                                 F               0         IfW Z-component position of node 10 (blade 1, node 9), m
         31    6.940E+00                                 F               0         IfW X-component position of node 11 (blade 1, node 10), m
         32    4.486E+01                                 F               0         IfW Y-component position of node 11 (blade 1, node 10), m
         33    1.466E+02                                 F               0         IfW Z-component position of node 11 (blade 1, node 10), m
         34    6.856E+00                                 F               0         IfW X-component position of node 12 (blade 1, node 11), m
         35    4.872E+01                                 F               0         IfW Y-component position of node 12 (blade 1, node 11), m
         36    1.463E+02                                 F               0         IfW Z-component position of node 12 (blade 1, node 11), m
         37    6.771E+00                                 F               0         IfW X-component position of node 13 (blade 1, node 12), m
         38    5.258E+01                                 F               0         IfW Y-component position of node 13 (blade 1, node 12), m
         39    1.461E+02                                 F               0         IfW Z-component position of node 13 (blade 1, node 12), m
         40    6.687E+00                                 F               0         IfW X-component position of node 14 (blade 1, node 13), m
         41    5.644E+01                                 F               0         IfW Y-component position of node 14 (blade 1, node 13), m
         42    1.459E+02                                 F               0         IfW Z-component position of node 14 (blade 1, node 13), m
         43    6.603E+00                                 F               0         IfW X-component position of node 15 (blade 1, node 14), m
         44    6.029E+01                                 F               0         IfW Y-component position of node 15 (blade 1, node 14), m
         45    1.456E+02                                 F               0         IfW Z-component position of node 15 (blade 1, node 14), m
         46    6.519E+00                                 F               0         IfW X-component position of node 16 (blade 1, node 15), m
         47    6.415E+01                                 F               0         IfW Y-component position of node 16 (blade 1, node 15), m
         48    1.454E+02                                 F               0         IfW Z-component position of node 16 (blade 1, node 15), m
         49    6.435E+00                                 F               0         IfW X-component position of node 17 (blade 1, node 16), m
         50    6.801E+01                                 F               0         IfW Y-component position of node 17 (blade 1, node 16), m
         51    1.451E+02                                 F               0         IfW Z-component position of node 17 (blade 1, node 16), m
         52    6.350E+00                                 F               0         IfW X-component position of node 18 (blade 1, node 17), m
         53    7.187E+01                                 F               0         IfW Y-component position of node 18 (blade 1, node 17), m
         54    1.449E+02                                 F               0         IfW Z-component position of node 18 (blade 1, node 17), m
         55    6.266E+00                                 F               0         IfW X-component position of node 19 (blade 1, node 18), m
         56    7.573E+01                                 F               0         IfW Y-component position of node 19 (blade 1, node 18), m
         57    1.446E+02                                 F               0         IfW Z-component position of node 19 (blade 1, node 18), m
         58    6.182E+00                                 F               0         IfW X-component position of node 20 (blade 1, node 19), m
         59    7.959E+01                                 F               0         IfW Y-component position of node 20 (blade 1, node 19), m
         60    1.444E+02                                 F               0         IfW Z-component position of node 20 (blade 1, node 19), m
         61    6.098E+00                                 F               0         IfW X-component position of node 21 (blade 1, node 20), m
         62    8.345E+01                                 F               0         IfW Y-component position of node 21 (blade 1, node 20), m
         63    1.441E+02                                 F               0         IfW Z-component position of node 21 (blade 1, node 20), m
         64    6.014E+00                                 F               0         IfW X-component position of node 22 (blade 1, node 21), m
         65    8.731E+01                                 F               0         IfW Y-component position of node 22 (blade 1, node 21), m
         66    1.439E+02                                 F               0         IfW Z-component position of node 22 (blade 1, node 21), m
         67    5.930E+00                                 F               0         IfW X-component position of node 23 (blade 1, node 22), m
         68    9.117E+01                                 F               0         IfW Y-component position of node 23 (blade 1, node 22), m
         69    1.436E+02                                 F               0         IfW Z-component position of node 23 (blade 1, node 22), m
         70    5.845E+00                                 F               0         IfW X-component position of node 24 (blade 1, node 23), m
         71    9.503E+01                                 F               0         IfW Y-component position of node 24 (blade 1, node 23), m
         72    1.434E+02                                 F               0         IfW Z-component position of node 24 (blade 1, node 23), m
         73    5.761E+00                                 F               0         IfW X-component position of node 25 (blade 1, node 24), m
         74    9.888E+01                                 F               0         IfW Y-component position of node 25 (blade 1, node 24), m
         75    1.432E+02                                 F               0         IfW Z-component position of node 25 (blade 1, node 24), m
         76    5.677E+00                                 F               0         IfW X-component position of node 26 (blade 1, node 25), m
         77    1.027E+02                                 F               0         IfW Y-component position of node 26 (blade 1, node 25), m
         78    1.429E+02                                 F               0         IfW Z-component position of node 26 (blade 1, node 25), m
         79    5.593E+00                                 F               0         IfW X-component position of node 27 (blade 1, node 26), m
         80    1.066E+02                                 F               0         IfW Y-component position of node 27 (blade 1, node 26), m
         81    1.427E+02                                 F               0         IfW Z-component position of node 27 (blade 1, node 26), m
         82    5.509E+00                                 F               0         IfW X-component position of node 28 (blade 1, node 27), m
         83    1.105E+02                                 F               0         IfW Y-component position of node 28 (blade 1, node 27), m
         84    1.424E+02                                 F               0         IfW Z-component position of node 28 (blade 1, node 27), m
         85    5.437E+00                                 F               0         IfW X-component position of node 29 (blade 1, node 28), m
         86    1.137E+02                                 F               0         IfW Y-component position of node 29 (blade 1, node 28), m
         87    1.422E+02                                 F               0         IfW Z-component position of node 29 (blade 1, node 28), m
         88    9.053E+00                                 F               0         IfW X-component position of node 30 (blade 2, node 1), m
         89   -9.571E+00                                 F               0         IfW Y-component position of node 30 (blade 2, node 1), m
         90    1.548E+02                                 F               0         IfW Z-component position of node 30 (blade 2, node 1), m
         91    9.289E+00                                 F               0         IfW X-component position of node 31 (blade 2, node 2), m
         92   -1.016E+01                                 F               0         IfW Y-component position of node 31 (blade 2, node 2), m
         93    1.559E+02                                 F               0         IfW Z-component position of node 31 (blade 2, node 2), m
         94    1.250E+01                                 F               0         IfW X-component position of node 32 (blade 2, node 3), m
         95   -1.817E+01                                 F               0         IfW Y-component position of node 32 (blade 2, node 3), m
         96    1.719E+02                                 F               0         IfW Z-component position of node 32 (blade 2, node 3), m
         97    1.318E+01                                 F               0         IfW X-component position of node 33 (blade 2, node 4), m
         98   -1.988E+01                                 F               0         IfW Y-component position of node 33 (blade 2, node 4), m
         99    1.753E+02                                 F               0         IfW Z-component position of node 33 (blade 2, node 4), m
        100    1.386E+01                                 F               0         IfW X-component position of node 34 (blade 2, node 5), m
        101   -2.159E+01                                 F               0         IfW Y-component position of node 34 (blade 2, node 5), m
        102    1.787E+02                                 F               0         IfW Z-component position of node 34 (blade 2, node 5), m
        103    1.455E+01                                 F               0         IfW X-component position of node 35 (blade 2, node 6), m
        104   -2.329E+01                                 F               0         IfW Y-component position of node 35 (blade 2, node 6), m
        105    1.821E+02                                 F               0         IfW Z-component position of node 35 (blade 2, node 6), m
        106    1.523E+01                                 F               0         IfW X-component position of node 36 (blade 2, node 7), m
        107   -2.500E+01                                 F               0         IfW Y-component position of node 36 (blade 2, node 7), m
        108    1.855E+02                                 F               0         IfW Z-component position of node 36 (blade 2, node 7), m
        109    1.592E+01                                 F               0         IfW X-component position of node 37 (blade 2, node 8), m
        110   -2.671E+01                                 F               0         IfW Y-component position of node 37 (blade 2, node 8), m
        111    1.889E+02                                 F               0         IfW Z-component position of node 37 (blade 2, node 8), m
        112    1.660E+01                                 F               0         IfW X-component position of node 38 (blade 2, node 9), m
        113   -2.841E+01                                 F               0         IfW Y-component position of node 38 (blade 2, node 9), m
        114    1.923E+02                                 F               0         IfW Z-component position of node 38 (blade 2, node 9), m
        115    1.728E+01                                 F               0         IfW X-component position of node 39 (blade 2, node 10), m
        116   -3.012E+01                                 F               0         IfW Y-component position of node 39 (blade 2, node 10), m
        117    1.957E+02                                 F               0         IfW Z-component position of node 39 (blade 2, node 10), m
        118    1.797E+01                                 F               0         IfW X-component position of node 40 (blade 2, node 11), m
        119   -3.183E+01                                 F               0         IfW Y-component position of node 40 (blade 2, node 11), m
        120    1.991E+02                                 F               0         IfW Z-component position of node 40 (blade 2, node 11), m
        121    1.865E+01                                 F               0         IfW X-component position of node 41 (blade 2, node 12), m
        122   -3.353E+01                                 F               0         IfW Y-component position of node 41 (blade 2, node 12), m
        123    2.025E+02                                 F               0         IfW Z-component position of node 41 (blade 2, node 12), m
        124    1.933E+01                                 F               0         IfW X-component position of node 42 (blade 2, node 13), m
        125   -3.524E+01                                 F               0         IfW Y-component position of node 42 (blade 2, node 13), m
        126    2.059E+02                                 F               0         IfW Z-component position of node 42 (blade 2, node 13), m
        127    2.002E+01                                 F               0         IfW X-component position of node 43 (blade 2, node 14), m
        128   -3.695E+01                                 F               0         IfW Y-component position of node 43 (blade 2, node 14), m
        129    2.093E+02                                 F               0         IfW Z-component position of node 43 (blade 2, node 14), m
        130    2.070E+01                                 F               0         IfW X-component position of node 44 (blade 2, node 15), m
        131   -3.866E+01                                 F               0         IfW Y-component position of node 44 (blade 2, node 15), m
        132    2.127E+02                                 F               0         IfW Z-component position of node 44 (blade 2, node 15), m
        133    2.138E+01                                 F               0         IfW X-component position of node 45 (blade 2, node 16), m
        134   -4.036E+01                                 F               0         IfW Y-component position of node 45 (blade 2, node 16), m
        135    2.161E+02                                 F               0         IfW Z-component position of node 45 (blade 2, node 16), m
        136    2.207E+01                                 F               0         IfW X-component position of node 46 (blade 2, node 17), m
        137   -4.207E+01                                 F               0         IfW Y-component position of node 46 (blade 2, node 17), m
        138    2.196E+02                                 F               0         IfW Z-component position of node 46 (blade 2, node 17), m
        139    2.275E+01                                 F               0         IfW X-component position of node 47 (blade 2, node 18), m
        140   -4.378E+01                                 F               0         IfW Y-component position of node 47 (blade 2, node 18), m
        141    2.230E+02                                 F               0         IfW Z-component position of node 47 (blade 2, node 18), m
        142    2.344E+01                                 F               0         IfW X-component position of node 48 (blade 2, node 19), m
        143   -4.548E+01                                 F               0         IfW Y-component position of node 48 (blade 2, node 19), m
        144    2.264E+02                                 F               0         IfW Z-component position of node 48 (blade 2, node 19), m