
Linearized model: Predictions were generated on 11-Jan-2024 at 12:32:35 using OpenFAST, compiled as a 64-bit application using single precision at commit v3.5.1
 linked with  NWTC Subroutine Library; ElastoDyn; InflowWind; AeroDyn; ServoDyn; HydroDyn; MoorDyn (v2.0.0, 2023-09-18)

Description from the FAST input file: CCT-9 Campign 4 model. Input files to be run with OpenFAST 3.5.0. GitHub branch from Lu Wang (https://github.com/luwang00/openfast/tree/dev) compiled on March 7, 2023.

Simulation information:
   Simulation time:                   505.4500 s
   Rotor Speed:                         0.7072 rad/s
   Azimuth:                             1.1127 rad
   Wind Speed:                          8.0000 m/s
   Number of continuous states:         0
   Number of discrete states:           0
   Number of constraint states:         0
   Number of inputs:                 1746
   Number of outputs:                   4
   Jacobians included in this file?    No

Order of inputs:
     Column   Operating Point                     Rotating Frame? Derivative Order Description
   ---------- ---------------                     --------------- ---------------- -----------
          1    7.284E+00                                 F               0         Tower X translation displacement, node 1, m
          2   -1.234E+00                                 F               0         Tower Y translation displacement, node 1, m
          3   -1.539E-01                                 F               0         Tower Z translation displacement, node 1, m
          4    8.328E+00                                 F               0         Tower X translation displacement, node 2, m
          5   -1.767E+00                                 F               0         Tower Y translation displacement, node 2, m
          6   -2.096E-01                                 F               0         Tower Z translation displacement, node 2, m
          7    9.387E+00                                 F               0         Tower X translation displacement, node 3, m
          8   -2.306E+00                                 F               0         Tower Y translation displacement, node 3, m
          9   -2.668E-01                                 F               0         Tower Z translation displacement, node 3, m
         10    1.046E+01                                 F               0         Tower X translation displacement, node 4, m
         11   -2.848E+00                                 F               0         Tower Y translation displacement, node 4, m
         12   -3.253E-01                                 F               0         Tower Z translation displacement, node 4, m
         13    1.154E+01                                 F               0         Tower X translation displacement, node 5, m
         14   -3.394E+00                                 F               0         Tower Y translation displacement, node 5, m
         15   -3.847E-01                                 F               0         Tower Z translation displacement, node 5, m
         16    1.263E+01                                 F               0         Tower X translation displacement, node 6, m
         17   -3.943E+00                                 F               0         Tower Y translation displacement, node 6, m
         18   -4.449E-01                                 F               0         Tower Z translation displacement, node 6, m
         19    1.372E+01                                 F               0         Tower X translation displacement, node 7, m
         20   -4.494E+00                                 F               0         Tower Y translation displacement, node 7, m
         21   -5.057E-01                                 F               0         Tower Z translation displacement, node 7, m
         22    1.482E+01                                 F               0         Tower X translation displacement, node 8, m
         23   -5.047E+00                                 F               0         Tower Y translation displacement, node 8, m
         24   -5.669E-01                                 F               0         Tower Z translation displacement, node 8, m
         25    1.591E+01                                 F               0         Tower X translation displacement, node 9, m
         26   -5.601E+00                                 F               0         Tower Y translation displacement, node 9, m
         27   -6.284E-01                                 F               0         Tower Z translation displacement, node 9, m
         28    1.702E+01                                 F               0         Tower X translation displacement, node 10, m
         29   -6.157E+00                                 F               0         Tower Y translation displacement, node 10, m
         30   -6.901E-01                                 F               0         Tower Z translation displacement, node 10, m
         31    1.812E+01                                 F               0         Tower X translation displacement, node 11, m
         32   -6.713E+00                                 F               0         Tower Y translation displacement, node 11, m
         33   -7.518E-01                                 F               0         Tower Z translation displacement, node 11, m
         34    9.965E-01,  4.241E-03, -8.383E-02         F               0         Tower X orientation angle, node 1, rad
         35   -6.171E-04,  9.991E-01,  4.321E-02         F               0         Tower Y orientation angle, node 1, rad
         36    8.393E-02, -4.301E-02,  9.955E-01         F               0         Tower Z orientation angle, node 1, rad
         37    9.964E-01,  4.294E-03, -8.504E-02         F               0         Tower X orientation angle, node 2, rad
         38   -5.842E-04,  9.990E-01,  4.360E-02         F               0         Tower Y orientation angle, node 2, rad
         39    8.514E-02, -4.339E-02,  9.954E-01         F               0         Tower Z orientation angle, node 2, rad
         40    9.963E-01,  4.339E-03, -8.608E-02         F               0         Tower X orientation angle, node 3, rad
         41   -5.544E-04,  9.990E-01,  4.395E-02         F               0         Tower Y orientation angle, node 3, rad
         42    8.619E-02, -4.373E-02,  9.953E-01         F               0         Tower Z orientation angle, node 3, rad
         43    9.962E-01,  4.377E-03, -8.694E-02         F               0         Tower X orientation angle, node 4, rad
         44   -5.281E-04,  9.990E-01,  4.425E-02         F               0         Tower Y orientation angle, node 4, rad
         45    8.705E-02, -4.403E-02,  9.952E-01         F               0         Tower Z orientation angle, node 4, rad
         46    9.961E-01,  4.408E-03, -8.762E-02         F               0         Tower X orientation angle, node 5, rad
         47   -5.053E-04,  9.990E-01,  4.451E-02         F               0         Tower Y orientation angle, node 5, rad
         48    8.773E-02, -4.429E-02,  9.952E-01         F               0         Tower Z orientation angle, node 5, rad
         49    9.961E-01,  4.431E-03, -8.814E-02         F               0         Tower X orientation angle, node 6, rad
         50   -4.861E-04,  9.990E-01,  4.473E-02         F               0         Tower Y orientation angle, node 6, rad
         51    8.825E-02, -4.451E-02,  9.951E-01         F               0         Tower Z orientation angle, node 6, rad
         52    9.961E-01,  4.448E-03, -8.852E-02         F               0         Tower X orientation angle, node 7, rad
         53   -4.708E-04,  9.990E-01,  4.490E-02         F               0         Tower Y orientation angle, node 7, rad
         54    8.863E-02, -4.468E-02,  9.951E-01         F               0         Tower Z orientation angle, node 7, rad
         55    9.960E-01,  4.459E-03, -8.877E-02         F               0         Tower X orientation angle, node 8, rad
         56   -4.588E-04,  9.990E-01,  4.504E-02         F               0         Tower Y orientation angle, node 8, rad
         57    8.888E-02, -4.482E-02,  9.950E-01         F               0         Tower Z orientation angle, node 8, rad
         58    9.960E-01,  4.467E-03, -8.894E-02         F               0         Tower X orientation angle, node 9, rad
         59   -4.501E-04,  9.990E-01,  4.513E-02         F               0         Tower Y orientation angle, node 9, rad
         60    8.905E-02, -4.491E-02,  9.950E-01         F               0         Tower Z orientation angle, node 9, rad
         61    9.960E-01,  4.471E-03, -8.903E-02         F               0         Tower X orientation angle, node 10, rad
         62   -4.443E-04,  9.990E-01,  4.520E-02         F               0         Tower Y orientation angle, node 10, rad
         63    8.914E-02, -4.498E-02,  9.950E-01         F               0         Tower Z orientation angle, node 10, rad
         64    9.960E-01,  4.473E-03, -8.907E-02         F               0         Tower X orientation angle, node 11, rad
         65   -4.412E-04,  9.990E-01,  4.523E-02         F               0         Tower Y orientation angle, node 11, rad
         66    8.918E-02, -4.502E-02,  9.950E-01         F               0         Tower Z orientation angle, node 11, rad
         67   -5.092E-03                                 F               0         Tower X translation velocity, node 1, m/s
         68    3.168E-04                                 F               0         Tower Y translation velocity, node 1, m/s
         69    4.433E-03                                 F               0         Tower Z translation velocity, node 1, m/s
         70   -4.989E-03                                 F               0         Tower X translation velocity, node 2, m/s
         71    3.318E-05                                 F               0         Tower Y translation velocity, node 2, m/s
         72    4.412E-03                                 F               0         Tower Z translation velocity, node 2, m/s
         73   -4.870E-03                                 F               0         Tower X translation velocity, node 3, m/s
         74   -2.687E-04                                 F               0         Tower Y translation velocity, node 3, m/s
         75    4.389E-03                                 F               0         Tower Z translation velocity, node 3, m/s
         76   -4.738E-03                                 F               0         Tower X translation velocity, node 4, m/s
         77   -5.854E-04                                 F               0         Tower Y translation velocity, node 4, m/s
         78    4.363E-03                                 F               0         Tower Z translation velocity, node 4, m/s
         79   -4.592E-03                                 F               0         Tower X translation velocity, node 5, m/s
         80   -9.156E-04                                 F               0         Tower Y translation velocity, node 5, m/s
         81    4.336E-03                                 F               0         Tower Z translation velocity, node 5, m/s
         82   -4.434E-03                                 F               0         Tower X translation velocity, node 6, m/s
         83   -1.258E-03                                 F               0         Tower Y translation velocity, node 6, m/s
         84    4.307E-03                                 F               0         Tower Z translation velocity, node 6, m/s
         85   -4.266E-03                                 F               0         Tower X translation velocity, node 7, m/s
         86   -1.609E-03                                 F               0         Tower Y translation velocity, node 7, m/s
         87    4.276E-03                                 F               0         Tower Z translation velocity, node 7, m/s
         88   -4.087E-03                                 F               0         Tower X translation velocity, node 8, m/s
         89   -1.970E-03                                 F               0         Tower Y translation velocity, node 8, m/s
         90    4.244E-03                                 F               0         Tower Z translation velocity, node 8, m/s
         91   -3.899E-03                                 F               0         Tower X translation velocity, node 9, m/s
         92   -2.337E-03                                 F               0         Tower Y translation velocity, node 9, m/s
         93    4.210E-03                                 F               0         Tower Z translation velocity, node 9, m/s
         94   -3.705E-03                                 F               0         Tower X translation velocity, node 10, m/s
         95   -2.709E-03                                 F               0         Tower Y translation velocity, node 10, m/s
         96    4.176E-03                                 F               0         Tower Z translation velocity, node 10, m/s
         97   -3.507E-03                                 F               0         Tower X translation velocity, node 11, m/s
         98   -3.084E-03                                 F               0         Tower Y translation velocity, node 11, m/s
         99    4.141E-03                                 F               0         Tower Z translation velocity, node 11, m/s
        100    1.886E+01                                 F               0         Hub X translation displacement, node 1, m
        101   -7.114E+00                                 F               0         Hub Y translation displacement, node 1, m
        102    1.709E-01                                 F               0         Hub Z translation displacement, node 1, m
        103    9.812E-01,  9.154E-03, -1.926E-01         F               0         Hub X orientation angle, node 1, rad
        104    1.727E-01,  4.020E-01,  8.992E-01         F               0         Hub Y orientation angle, node 1, rad
        105    8.565E-02, -9.156E-01,  3.929E-01         F               0         Hub Z orientation angle, node 1, rad
        106    6.940E-01                                 F               0         Hub X rotation velocity, node 1, rad/s
        107    6.491E-03                                 F               0         Hub Y rotation velocity, node 1, rad/s
        108   -1.362E-01                                 F               0         Hub Z rotation velocity, node 1, rad/s
        109    9.757E-01, -2.777E-03, -2.192E-01         F               0         Blade root 1 X orientation angle, node 1, rad
        110    2.018E-01,  4.021E-01,  8.931E-01         F               0         Blade root 1 Y orientation angle, node 1, rad
        111    8.565E-02, -9.156E-01,  3.929E-01         F               0         Blade root 1 Z orientation angle, node 1, rad
        112    9.812E-01,  3.864E-02, -1.893E-01         F               0         Blade root 2 X orientation angle, node 1, rad
        113    1.693E-02, -9.932E-01, -1.150E-01         F               0         Blade root 2 Y orientation angle, node 1, rad
        114   -1.924E-01,  1.096E-01, -9.752E-01         F               0         Blade root 2 Z orientation angle, node 1, rad
        115    9.856E-01, -8.410E-03, -1.691E-01         F               0         Blade root 3 X orientation angle, node 1, rad
        116   -1.314E-01,  5.919E-01, -7.952E-01         F               0         Blade root 3 Y orientation angle, node 1, rad
        117    1.068E-01,  8.060E-01,  5.823E-01         F               0         Blade root 3 Z orientation angle, node 1, rad
        118    1.876E+01                                 F               0         Blade 1 X translation displacement, node 1, m
        119   -1.219E+01                                 F               0         Blade 1 Y translation displacement, node 1, m
        120   -3.162E+00                                 F               0         Blade 1 Z translation displacement, node 1, m
        121    1.873E+01                                 F               0         Blade 1 X translation displacement, node 2, m
        122   -1.341E+01                                 F               0         Blade 1 Y translation displacement, node 2, m
        123   -3.965E+00                                 F               0         Blade 1 Z translation displacement, node 2, m
        124    1.839E+01                                 F               0         Blade 1 X translation displacement, node 3, m
        125   -3.003E+01                                 F               0         Blade 1 Y translation displacement, node 3, m
        126   -1.489E+01                                 F               0         Blade 1 Z translation displacement, node 3, m
        127    1.831E+01                                 F               0         Blade 1 X translation displacement, node 4, m
        128   -3.357E+01                                 F               0         Blade 1 Y translation displacement, node 4, m
        129   -1.721E+01                                 F               0         Blade 1 Z translation displacement, node 4, m
        130    1.824E+01                                 F               0         Blade 1 X translation displacement, node 5, m
        131   -3.711E+01                                 F               0         Blade 1 Y translation displacement, node 5, m
        132   -1.954E+01                                 F               0         Blade 1 Z translation displacement, node 5, m
        133    1.817E+01                                 F               0         Blade 1 X translation displacement, node 6, m
        134   -4.065E+01                                 F               0         Blade 1 Y translation displacement, node 6, m
        135   -2.187E+01                                 F               0         Blade 1 Z translation displacement, node 6, m
        136    1.810E+01                                 F               0         Blade 1 X translation displacement, node 7, m
        137   -4.419E+01                                 F               0         Blade 1 Y translation displacement, node 7, m
        138   -2.419E+01                                 F               0         Blade 1 Z translation displacement, node 7, m
        139    1.802E+01                                 F               0         Blade 1 X translation displacement, node 8, m
        140   -4.774E+01                                 F               0         Blade 1 Y translation displacement, node 8, m
        141   -2.652E+01                                 F               0         Blade 1 Z translation displacement, node 8, m
        142    1.795E+01                                 F               0         Blade 1 X translation displacement, node 9, m
        143   -5.128E+01                                 F               0         Blade 1 Y translation displacement, node 9, m
        144   -2.885E+01                                 F               0         Blade 1 Z translation displacement, node 9, m
        145    1.788E+01                                 F               0         Blade 1 X translation displacement, node 10, m
        146   -5.482E+01                                 F               0         Blade 1 Y translation displacement, node 10, m
        147   -3.117E+01                                 F               0         Blade 1 Z translation displacement, node 10, m
        148    1.780E+01                                 F               0         Blade 1 X translation displacement, node 11, m
        149   -5.836E+01                                 F               0         Blade 1 Y translation displacement, node 11, m
        150   -3.350E+01                                 F               0         Blade 1 Z translation displacement, node 11, m
        151    1.773E+01                                 F               0         Blade 1 X translation displacement, node 12, m
        152   -6.190E+01                                 F               0         Blade 1 Y translation displacement, node 12, m
        153   -3.583E+01                                 F               0         Blade 1 Z translation displacement, node 12, m
        154    1.766E+01                                 F               0         Blade 1 X translation displacement, node 13, m
        155   -6.544E+01                                 F               0         Blade 1 Y translation displacement, node 13, m
        156   -3.815E+01                                 F               0         Blade 1 Z translation displacement, node 13, m
        157    1.758E+01                                 F               0         Blade 1 X translation displacement, node 14, m
        158   -6.898E+01                                 F               0         Blade 1 Y translation displacement, node 14, m
        159   -4.048E+01                                 F               0         Blade 1 Z translation displacement, node 14, m
        160    1.751E+01                                 F               0         Blade 1 X translation displacement, node 15, m
        161   -7.252E+01                                 F               0         Blade 1 Y translation displacement, node 15, m
        162   -4.281E+01                                 F               0         Blade 1 Z translation displacement, node 15, m
        163    1.744E+01                                 F               0         Blade 1 X translation displacement, node 16, m
        164   -7.606E+01                                 F               0         Blade 1 Y translation displacement, node 16, m
        165   -4.514E+01                                 F               0         Blade 1 Z translation displacement, node 16, m
        166    1.737E+01                                 F               0         Blade 1 X translation displacement, node 17, m
        167   -7.961E+01                                 F               0         Blade 1 Y translation displacement, node 17, m
        168   -4.746E+01                                 F               0         Blade 1 Z translation displacement, node 17, m
        169    1.729E+01                                 F               0         Blade 1 X translation displacement, node 18, m
        170   -8.315E+01                                 F               0         Blade 1 Y translation displacement, node 18, m
        171   -4.979E+01                                 F               0         Blade 1 Z translation displacement, node 18, m
        172    1.722E+01                                 F               0         Blade 1 X translation displacement, node 19, m
        173   -8.669E+01                                 F               0         Blade 1 Y translation displacement, node 19, m
        174   -5.212E+01                                 F               0         Blade 1 Z translation displacement, node 19, m
        175    1.715E+01                                 F               0         Blade 1 X translation displacement, node 20, m
        176   -9.023E+01                                 F               0         Blade 1 Y translation displacement, node 20, m
        177   -5.444E+01                                 F               0         Blade 1 Z translation displacement, node 20, m
        178    1.707E+01                                 F               0         Blade 1 X translation displacement, node 21, m
        179   -9.377E+01                                 F               0         Blade 1 Y translation displacement, node 21, m
        180   -5.677E+01                                 F               0         Blade 1 Z translation displacement, node 21, m
        181    1.700E+01                                 F               0         Blade 1 X translation displacement, node 22, m
        182   -9.731E+01                                 F               0         Blade 1 Y translation displacement, node 22, m
        183   -5.910E+01                                 F               0         Blade 1 Z translation displacement, node 22, m
        184    1.693E+01                                 F               0         Blade 1 X translation displacement, node 23, m
        185   -1.009E+02                                 F               0         Blade 1 Y translation displacement, node 23, m
        186   -6.142E+01                                 F               0         Blade 1 Z translation displacement, node 23, m
        187    1.685E+01                                 F               0         Blade 1 X translation displacement, node 24, m
        188   -1.044E+02                                 F               0         Blade 1 Y translation displacement, node 24, m
        189   -6.375E+01                                 F               0         Blade 1 Z translation displacement, node 24, m
        190    1.678E+01                                 F               0         Blade 1 X translation displacement, node 25, m
        191   -1.079E+02                                 F               0         Blade 1 Y translation displacement, node 25, m
        192   -6.608E+01                                 F               0         Blade 1 Z translation displacement, node 25, m
        193    1.671E+01                                 F               0         Blade 1 X translation displacement, node 26, m
        194   -1.115E+02                                 F               0         Blade 1 Y translation displacement, node 26, m
        195   -6.840E+01                                 F               0         Blade 1 Z translation displacement, node 26, m
        196    1.664E+01                                 F               0         Blade 1 X translation displacement, node 27, m
        197   -1.150E+02                                 F               0         Blade 1 Y translation displacement, node 27, m
        198   -7.073E+01                                 F               0         Blade 1 Z translation displacement, node 27, m
        199    1.657E+01                                 F               0         Blade 1 X translation displacement, node 28, m
        200   -1.180E+02                                 F               0         Blade 1 Y translation displacement, node 28, m
        201   -7.270E+01                                 F               0         Blade 1 Z translation displacement, node 28, m
        202    7.763E-01, -1.858E-01, -6.023E-01         F               0         Blade 1 X orientation angle, node 1, rad
        203    6.245E-01,  3.566E-01,  6.949E-01         F               0         Blade 1 Y orientation angle, node 1, rad
        204    8.565E-02, -9.156E-01,  3.929E-01         F               0         Blade 1 Z orientation angle, node 1, rad
        205    7.763E-01, -1.858E-01, -6.023E-01         F               0         Blade 1 X orientation angle, node 2, rad
        206    6.245E-01,  3.566E-01,  6.949E-01         F               0         Blade 1 Y orientation angle, node 2, rad
        207    8.565E-02, -9.156E-01,  3.929E-01         F               0         Blade 1 Z orientation angle, node 2, rad
        208    9.022E-01, -9.603E-02, -4.205E-01         F               0         Blade 1 X orientation angle, node 3, rad
        209    4.227E-01,  3.905E-01,  8.178E-01         F               0         Blade 1 Y orientation angle, node 3, rad
        210    8.565E-02, -9.156E-01,  3.929E-01         F               0         Blade 1 Z orientation angle, node 3, rad
        211    9.193E-01, -7.945E-02, -3.856E-01         F               0         Blade 1 X orientation angle, node 4, rad
        212    3.842E-01,  3.942E-01,  8.349E-01         F               0         Blade 1 Y orientation angle, node 4, rad
        213    8.565E-02, -9.156E-01,  3.929E-01         F               0         Blade 1 Z orientation angle, node 4, rad
        214    9.315E-01, -6.634E-02, -3.577E-01         F               0         Blade 1 X orientation angle, node 5, rad
        215    3.535E-01,  3.966E-01,  8.472E-01         F               0         Blade 1 Y orientation angle, node 5, rad
        216    8.565E-02, -9.156E-01,  3.929E-01         F               0         Blade 1 Z orientation angle, node 5, rad
        217    9.405E-01, -5.580E-02, -3.351E-01         F               0         Blade 1 X orientation angle, node 6, rad
        218    3.287E-01,  3.982E-01,  8.564E-01         F               0         Blade 1 Y orientation angle, node 6, rad
        219    8.565E-02, -9.156E-01,  3.929E-01         F               0         Blade 1 Z orientation angle, node 6, rad
        220    9.475E-01, -4.710E-02, -3.163E-01         F               0         Blade 1 X orientation angle, node 7, rad
        221    3.081E-01,  3.994E-01,  8.635E-01         F               0         Blade 1 Y orientation angle, node 7, rad
        222    8.565E-02, -9.156E-01,  3.929E-01         F               0         Blade 1 Z orientation angle, node 7, rad
        223    9.529E-01, -3.984E-02, -3.006E-01         F               0         Blade 1 X orientation angle, node 8, rad
        224    2.909E-01,  4.002E-01,  8.691E-01         F               0         Blade 1 Y orientation angle, node 8, rad
        225    8.565E-02, -9.156E-01,  3.929E-01         F               0         Blade 1 Z orientation angle, node 8, rad
        226    9.573E-01, -3.369E-02, -2.872E-01         F               0         Blade 1 X orientation angle, node 9, rad
        227    2.762E-01,  4.007E-01,  8.736E-01         F               0         Blade 1 Y orientation angle, node 9, rad