
Linearized model: Predictions were generated on 11-Jan-2024 at 12:32:35 using OpenFAST, compiled as a 64-bit application using single precision at commit v3.5.1
 linked with  NWTC Subroutine Library; ElastoDyn; InflowWind; AeroDyn; ServoDyn; HydroDyn; MoorDyn (v2.0.0, 2023-09-18)

Description from the FAST input file: CCT-9 Campign 4 model. Input files to be run with OpenFAST 3.5.0. GitHub branch from Lu Wang (https://github.com/luwang00/openfast/tree/dev) compiled on March 7, 2023.

Simulation information:
   Simulation time:                   508.1500 s
   Rotor Speed:                         0.7076 rad/s
   Azimuth:                             3.0226 rad
   Wind Speed:                          8.0000 m/s
   Number of continuous states:         0
   Number of discrete states:           0
   Number of constraint states:         0
   Number of inputs:                  303
   Number of outputs:                   1
   Jacobians included in this file?    No

Order of inputs:
     Column   Operating Point                     Rotating Frame? Derivative Order Description
   ---------- ---------------                     --------------- ---------------- -----------
          1   -1.080E+01                                 F               0         X-component position of node 1 (hub), m
          2    0.000E+00                                 F               0         Y-component position of node 1 (hub), m
          3    1.497E+02                                 F               0         Z-component position of node 1 (hub), m
          4    6.989E+00                                 F               0         X-component position of node 2 (blade 1, node 1), m
          5   -7.556E+00                                 F               0         Y-component position of node 2 (blade 1, node 1), m
          6    1.445E+02                                 F               0         Z-component position of node 2 (blade 1, node 1), m
          7    6.734E+00                                 F               0         X-component position of node 3 (blade 1, node 2), m
          8   -7.655E+00                                 F               0         Y-component position of node 3 (blade 1, node 2), m
          9    1.432E+02                                 F               0         Z-component position of node 3 (blade 1, node 2), m
         10    3.259E+00                                 F               0         X-component position of node 4 (blade 1, node 3), m
         11   -9.004E+00                                 F               0         Y-component position of node 4 (blade 1, node 3), m
         12    1.254E+02                                 F               0         Z-component position of node 4 (blade 1, node 3), m
         13    2.519E+00                                 F               0         X-component position of node 5 (blade 1, node 4), m
         14   -9.292E+00                                 F               0         Y-component position of node 5 (blade 1, node 4), m
         15    1.216E+02                                 F               0         Z-component position of node 5 (blade 1, node 4), m
         16    1.778E+00                                 F               0         X-component position of node 6 (blade 1, node 5), m
         17   -9.580E+00                                 F               0         Y-component position of node 6 (blade 1, node 5), m
         18    1.179E+02                                 F               0         Z-component position of node 6 (blade 1, node 5), m
         19    1.038E+00                                 F               0         X-component position of node 7 (blade 1, node 6), m
         20   -9.867E+00                                 F               0         Y-component position of node 7 (blade 1, node 6), m
         21    1.141E+02                                 F               0         Z-component position of node 7 (blade 1, node 6), m
         22    2.978E-01                                 F               0         X-component position of node 8 (blade 1, node 7), m
         23   -1.015E+01                                 F               0         Y-component position of node 8 (blade 1, node 7), m
         24    1.103E+02                                 F               0         Z-component position of node 8 (blade 1, node 7), m
         25   -4.427E-01                                 F               0         X-component position of node 9 (blade 1, node 8), m
         26   -1.044E+01                                 F               0         Y-component position of node 9 (blade 1, node 8), m
         27    1.065E+02                                 F               0         Z-component position of node 9 (blade 1, node 8), m
         28   -1.183E+00                                 F               0         X-component position of node 10 (blade 1, node 9), m
         29   -1.073E+01                                 F               0         Y-component position of node 10 (blade 1, node 9), m
         30    1.027E+02                                 F               0         Z-component position of node 10 (blade 1, node 9), m
         31   -1.923E+00                                 F               0         X-component position of node 11 (blade 1, node 10), m
         32   -1.102E+01                                 F               0         Y-component position of node 11 (blade 1, node 10), m
         33    9.893E+01                                 F               0         Z-component position of node 11 (blade 1, node 10), m
         34   -2.664E+00                                 F               0         X-component position of node 12 (blade 1, node 11), m
         35   -1.130E+01                                 F               0         Y-component position of node 12 (blade 1, node 11), m
         36    9.514E+01                                 F               0         Z-component position of node 12 (blade 1, node 11), m
         37   -3.404E+00                                 F               0         X-component position of node 13 (blade 1, node 12), m
         38   -1.159E+01                                 F               0         Y-component position of node 13 (blade 1, node 12), m
         39    9.136E+01                                 F               0         Z-component position of node 13 (blade 1, node 12), m
         40   -4.144E+00                                 F               0         X-component position of node 14 (blade 1, node 13), m
         41   -1.188E+01                                 F               0         Y-component position of node 14 (blade 1, node 13), m
         42    8.757E+01                                 F               0         Z-component position of node 14 (blade 1, node 13), m
         43   -4.885E+00                                 F               0         X-component position of node 15 (blade 1, node 14), m
         44   -1.217E+01                                 F               0         Y-component position of node 15 (blade 1, node 14), m
         45    8.379E+01                                 F               0         Z-component position of node 15 (blade 1, node 14), m
         46   -5.625E+00                                 F               0         X-component position of node 16 (blade 1, node 15), m
         47   -1.245E+01                                 F               0         Y-component position of node 16 (blade 1, node 15), m
         48    8.000E+01                                 F               0         Z-component position of node 16 (blade 1, node 15), m
         49   -6.366E+00                                 F               0         X-component position of node 17 (blade 1, node 16), m
         50   -1.274E+01                                 F               0         Y-component position of node 17 (blade 1, node 16), m
         51    7.622E+01                                 F               0         Z-component position of node 17 (blade 1, node 16), m
         52   -7.106E+00                                 F               0         X-component position of node 18 (blade 1, node 17), m
         53   -1.303E+01                                 F               0         Y-component position of node 18 (blade 1, node 17), m
         54    7.243E+01                                 F               0         Z-component position of node 18 (blade 1, node 17), m
         55   -7.846E+00                                 F               0         X-component position of node 19 (blade 1, node 18), m
         56   -1.332E+01                                 F               0         Y-component position of node 19 (blade 1, node 18), m
         57    6.865E+01                                 F               0         Z-component position of node 19 (blade 1, node 18), m
         58   -8.587E+00                                 F               0         X-component position of node 20 (blade 1, node 19), m
         59   -1.361E+01                                 F               0         Y-component position of node 20 (blade 1, node 19), m
         60    6.486E+01                                 F               0         Z-component position of node 20 (blade 1, node 19), m
         61   -9.327E+00                                 F               0         X-component position of node 21 (blade 1, node 20), m
         62   -1.389E+01                                 F               0         Y-component position of node 21 (blade 1, node 20), m
         63    6.108E+01                                 F               0         Z-component position of node 21 (blade 1, node 20), m
         64   -1.007E+01                                 F               0         X-component position of node 22 (blade 1, node 21), m
         65   -1.418E+01                                 F               0         Y-component position of node 22 (blade 1, node 21), m
         66    5.729E+01                                 F               0         Z-component position of node 22 (blade 1, node 21), m
         67   -1.081E+01                                 F               0         X-component position of node 23 (blade 1, node 22), m
         68   -1.447E+01                                 F               0         Y-component position of node 23 (blade 1, node 22), m
         69    5.351E+01                                 F               0         Z-component position of node 23 (blade 1, node 22), m
         70   -1.155E+01                                 F               0         X-component position of node 24 (blade 1, node 23), m
         71   -1.476E+01                                 F               0         Y-component position of node 24 (blade 1, node 23), m
         72    4.972E+01                                 F               0         Z-component position of node 24 (blade 1, node 23), m
         73   -1.229E+01                                 F               0         X-component position of node 25 (blade 1, node 24), m
         74   -1.504E+01                                 F               0         Y-component position of node 25 (blade 1, node 24), m
         75    4.594E+01                                 F               0         Z-component position of node 25 (blade 1, node 24), m
         76   -1.303E+01                                 F               0         X-component position of node 26 (blade 1, node 25), m
         77   -1.533E+01                                 F               0         Y-component position of node 26 (blade 1, node 25), m
         78    4.215E+01                                 F               0         Z-component position of node 26 (blade 1, node 25), m
         79   -1.377E+01                                 F               0         X-component position of node 27 (blade 1, node 26), m
         80   -1.562E+01                                 F               0         Y-component position of node 27 (blade 1, node 26), m
         81    3.836E+01                                 F               0         Z-component position of node 27 (blade 1, node 26), m
         82   -1.451E+01                                 F               0         X-component position of node 28 (blade 1, node 27), m
         83   -1.591E+01                                 F               0         Y-component position of node 28 (blade 1, node 27), m
         84    3.458E+01                                 F               0         Z-component position of node 28 (blade 1, node 27), m
         85   -1.514E+01                                 F               0         X-component position of node 29 (blade 1, node 28), m
         86   -1.615E+01                                 F               0         Y-component position of node 29 (blade 1, node 28), m
         87    3.137E+01                                 F               0         Z-component position of node 29 (blade 1, node 28), m
         88    8.468E+00                                 F               0         X-component position of node 30 (blade 2, node 1), m
         89   -2.154E+00                                 F               0         Y-component position of node 30 (blade 2, node 1), m
         90    1.523E+02                                 F               0         Z-component position of node 30 (blade 2, node 1), m
         91    8.569E+00                                 F               0         X-component position of node 31 (blade 2, node 2), m
         92   -9.512E-01                                 F               0         Y-component position of node 31 (blade 2, node 2), m
         93    1.529E+02                                 F               0         Z-component position of node 31 (blade 2, node 2), m
         94    9.941E+00                                 F               0         X-component position of node 32 (blade 2, node 3), m
         95    1.540E+01                                 F               0         Y-component position of node 32 (blade 2, node 3), m
         96    1.606E+02                                 F               0         Z-component position of node 32 (blade 2, node 3), m
         97    1.023E+01                                 F               0         X-component position of node 33 (blade 2, node 4), m
         98    1.888E+01                                 F               0         Y-component position of node 33 (blade 2, node 4), m
         99    1.623E+02                                 F               0         Z-component position of node 33 (blade 2, node 4), m
        100    1.053E+01                                 F               0         X-component position of node 34 (blade 2, node 5), m
        101    2.237E+01                                 F               0         Y-component position of node 34 (blade 2, node 5), m
        102    1.639E+02                                 F               0         Z-component position of node 34 (blade 2, node 5), m
        103    1.082E+01                                 F               0         X-component position of node 35 (blade 2, node 6), m
        104    2.585E+01                                 F               0         Y-component position of node 35 (blade 2, node 6), m
        105    1.656E+02                                 F               0         Z-component position of node 35 (blade 2, node 6), m
        106    1.111E+01                                 F               0         X-component position of node 36 (blade 2, node 7), m
        107    2.934E+01                                 F               0         Y-component position of node 36 (blade 2, node 7), m
        108    1.672E+02                                 F               0         Z-component position of node 36 (blade 2, node 7), m
        109    1.140E+01                                 F               0         X-component position of node 37 (blade 2, node 8), m
        110    3.282E+01                                 F               0         Y-component position of node 37 (blade 2, node 8), m
        111    1.689E+02                                 F               0         Z-component position of node 37 (blade 2, node 8), m
        112    1.169E+01                                 F               0         X-component position of node 38 (blade 2, node 9), m
        113    3.630E+01                                 F               0         Y-component position of node 38 (blade 2, node 9), m
        114    1.705E+02                                 F               0         Z-component position of node 38 (blade 2, node 9), m
        115    1.199E+01                                 F               0         X-component position of node 39 (blade 2, node 10), m
        116    3.979E+01                                 F               0         Y-component position of node 39 (blade 2, node 10), m
        117    1.722E+02                                 F               0         Z-component position of node 39 (blade 2, node 10), m
        118    1.228E+01                                 F               0         X-component position of node 40 (blade 2, node 11), m
        119    4.327E+01                                 F               0         Y-component position of node 40 (blade 2, node 11), m
        120    1.739E+02                                 F               0         Z-component position of node 40 (blade 2, node 11), m
        121    1.257E+01                                 F               0         X-component position of node 41 (blade 2, node 12), m
        122    4.676E+01                                 F               0         Y-component position of node 41 (blade 2, node 12), m
        123    1.755E+02                                 F               0         Z-component position of node 41 (blade 2, node 12), m
        124    1.286E+01                                 F               0         X-component position of node 42 (blade 2, node 13), m
        125    5.024E+01                                 F               0         Y-component position of node 42 (blade 2, node 13), m
        126    1.772E+02                                 F               0         Z-component position of node 42 (blade 2, node 13), m
        127    1.316E+01                                 F               0         X-component position of node 43 (blade 2, node 14), m
        128    5.372E+01                                 F               0         Y-component position of node 43 (blade 2, node 14), m
        129    1.788E+02                                 F               0         Z-component position of node 43 (blade 2, node 14), m
        130    1.345E+01                                 F               0         X-component position of node 44 (blade 2, node 15), m
        131    5.721E+01                                 F               0         Y-component position of node 44 (blade 2, node 15), m
        132    1.805E+02                                 F               0         Z-component position of node 44 (blade 2, node 15), m
        133    1.374E+01                                 F               0         X-component position of node 45 (blade 2, node 16), m
        134    6.069E+01                                 F               0         Y-component position of node 45 (blade 2, node 16), m
        135    1.821E+02                                 F               0         Z-component position of node 45 (blade 2, node 16), m
        136    1.403E+01                                 F               0         X-component position of node 46 (blade 2, node 17), m
        137    6.417E+01                                 F               0         Y-component position of node 46 (blade 2, node 17), m
        138    1.838E+02                                 F               0         Z-component position of node 46 (blade 2, node 17), m
        139    1.432E+01                                 F               0         X-component position of node 47 (blade 2, node 18), m
        140    6.766E+01                                 F               0         Y-component position of node 47 (blade 2, node 18), m
        141    1.854E+02                                 F               0         Z-component position of node 47 (blade 2, node 18), m
        142    1.462E+01                                 F               0         X-component position of node 48 (blade 2, node 19), m
        143    7.114E+01                                 F               0         Y-component position of node 48 (blade 2, node 19), m
        144    1.871E+02                                 F               0         Z-component position of node 48 (blade 2, node 19), m
        145    1.491E+01                                 F               0         X-component position of node 49 (blade 2, node 20), m
        146    7.463E+01                                 F               0         Y-component position of node 49 (blade 2, node 20), m
        147    1.887E+02                                 F               0         Z-component position of node 49 (blade 2, node 20), m
        148    1.520E+01                                 F               0         X-component position of node 50 (blade 2, node 21), m
        149    7.811E+01                                 F               0         Y-component position of node 50 (blade 2, node 21), m
        150    1.904E+02                                 F               0         Z-component position of node 50 (blade 2, node 21), m
        151    1.549E+01                                 F               0         X-component position of node 51 (blade 2, node 22), m
        152    8.159E+01                                 F               0         Y-component position of node 51 (blade 2, node 22), m
        153    1.921E+02                                 F               0         Z-component position of node 51 (blade 2, node 22), m
        154    1.579E+01                                 F               0         X-component position of node 52 (blade 2, node 23), m
        155    8.508E+01                                 F               0         Y-component position of node 52 (blade 2, node 23), m
        156    1.937E+02                                 F               0         Z-component position of node 52 (blade 2, node 23), m
        157    1.608E+01                                 F               0         X-component position of node 53 (blade 2, node 24), m
        158    8.856E+01                                 F               0         Y-component position of node 53 (blade 2, node 24), m
        159    1.954E+02                                 F               0         Z-component position of node 53 (blade 2, node 24), m
        160    1.637E+01                                 F               0         X-component position of node 54 (blade 2, node 25), m
        161    9.205E+01                                 F               0         Y-component position of node 54 (blade 2, node 25), m
        162    1.970E+02                                 F               0         Z-component position of node 54 (blade 2, node 25), m
        163    1.666E+01                                 F               0         X-component position of node 55 (blade 2, node 26), m
        164    9.553E+01                                 F               0         Y-component position of node 55 (blade 2, node 26), m
        165    1.987E+02                                 F               0         Z-component position of node 55 (blade 2, node 26), m
        166    1.695E+01                                 F               0         X-component position of node 56 (blade 2, node 27), m
        167    9.901E+01                                 F               0         Y-component position of node 56 (blade 2, node 27), m
        168    2.003E+02                                 F               0         Z-component position of node 56 (blade 2, node 27), m
        169    1.720E+01                                 F               0         X-component position of node 57 (blade 2, node 28), m
        170    1.020E+02                                 F               0         Y-component position of node 57 (blade 2, node 28), m
        171    2.017E+02                                 F               0         Z-component position of node 57 (blade 2, node 28), m
        172    8.692E+00                                 F               0         X-component position of node 58 (blade 3, node 1), m
        173   -1.172E+01                                 F               0         Y-component position of node 58 (blade 3, node 1), m
        174    1.530E+02                                 F               0         Z-component position of node 58 (blade 3, node 1), m
        175    8.846E+00                                 F               0         X-component position of node 59 (blade 3, node 2), m
        176   -1.283E+01                                 F               0         Y-component position of node 59 (blade 3, node 2), m
        177    1.537E+02                                 F               0         Z-component position of node 59 (blade 3, node 2), m
        178    1.095E+01                                 F               0         X-component position of node 60 (blade 3, node 3), m
        179   -2.783E+01                                 F               0         Y-component position of node 60 (blade 3, node 3), m
        180    1.637E+02                                 F               0         Z-component position of node 60 (blade 3, node 3), m
        181    1.140E+01                                 F               0         X-component position of node 61 (blade 3, node 4), m
        182   -3.102E+01                                 F               0         Y-component position of node 61 (blade 3, node 4), m
        183    1.658E+02                                 F               0         Z-component position of node 61 (blade 3, node 4), m
        184    1.185E+01                                 F               0         X-component position of node 62 (blade 3, node 5), m
        185   -3.422E+01                                 F               0         Y-component position of node 62 (blade 3, node 5), m
        186    1.680E+02                                 F               0         Z-component position of node 62 (blade 3, node 5), m
        187    1.229E+01                                 F               0         X-component position of node 63 (blade 3, node 6), m
        188   -3.742E+01                                 F               0         Y-component position of node 63 (blade 3, node 6), m
        189    1.701E+02                                 F               0         Z-component position of node 63 (blade 3, node 6), m
        190    1.274E+01                                 F               0         X-component position of node 64 (blade 3, node 7), m
        191   -4.061E+01                                 F               0         Y-component position of node 64 (blade 3, node 7), m
        192    1.722E+02                                 F               0         Z-component position of node 64 (blade 3, node 7), m
        193    1.319E+01                                 F               0         X-component position of node 65 (blade 3, node 8), m
        194   -4.381E+01                                 F               0         Y-component position of node 65 (blade 3, node 8), m
        195    1.744E+02                                 F               0         Z-component position of node 65 (blade 3, node 8), m
        196    1.364E+01                                 F               0         X-component position of node 66 (blade 3, node 9), m
        197   -4.701E+01                                 F               0         Y-component position of node 66 (blade 3, node 9), m
        198    1.765E+02                                 F               0         Z-component position of node 66 (blade 3, node 9), m
        199    1.409E+01                                 F               0         X-component position of node 67 (blade 3, node 10), m
        200   -5.020E+01                                 F               0         Y-component position of node 67 (blade 3, node 10), m
        201    1.786E+02                                 F               0         Z-component position of node 67 (blade 3, node 10), m
        202    1.453E+01                                 F               0         X-component position of node 68 (blade 3, node 11), m
        203   -5.340E+01                                 F               0         Y-component position of node 68 (blade 3, node 11), m
        204    1.808E+02                                 F               0         Z-component position of node 68 (blade 3, node 11), m
        205    1.498E+01                                 F               0         X-component position of node 69 (blade 3, node 12), m
        206   -5.659E+01                                 F               0         Y-component position of node 69 (blade 3, node 12), m
        207    1.829E+02                                 F               0         Z-component position of node 69 (blade 3, node 12), m
        208    1.543E+01                                 F               0         X-component position of node 70 (blade 3, node 13), m
        209   -5.979E+01                                 F               0         Y-component position of node 70 (blade 3, node 13), m
        210    1.850E+02                                 F               0         Z-component position of node 70 (blade 3, node 13), m
        211    1.588E+01                                 F               0         X-component position of node 71 (blade 3, node 14), m