
Linearized model: Predictions were generated on 11-Jan-2024 at 12:32:35 using OpenFAST, compiled as a 64-bit application using single precision at commit v3.5.1
 linked with  NWTC Subroutine Library; ElastoDyn; InflowWind; AeroDyn; ServoDyn; HydroDyn; MoorDyn (v2.0.0, 2023-09-18)

Description from the FAST input file: CCT-9 Campign 4 model. Input files to be run with OpenFAST 3.5.0. GitHub branch from Lu Wang (https://github.com/luwang00/openfast/tree/dev) compiled on March 7, 2023.

Simulation information:
   Simulation time:                   503.4750 s
   Rotor Speed:                         0.7074 rad/s
   Azimuth:                             5.9990 rad
   Wind Speed:                          8.0000 m/s
   Number of continuous states:         0
   Number of discrete states:           0
   Number of constraint states:         0
   Number of inputs:                 1746
   Number of outputs:                   4
   Jacobians included in this file?    No

Order of inputs:
     Column   Operating Point                     Rotating Frame? Derivative Order Description
   ---------- ---------------                     --------------- ---------------- -----------
          1    7.294E+00                                 F               0         Tower X translation displacement, node 1, m
          2   -1.236E+00                                 F               0         Tower Y translation displacement, node 1, m
          3   -1.622E-01                                 F               0         Tower Z translation displacement, node 1, m
          4    8.337E+00                                 F               0         Tower X translation displacement, node 2, m
          5   -1.769E+00                                 F               0         Tower Y translation displacement, node 2, m
          6   -2.179E-01                                 F               0         Tower Z translation displacement, node 2, m
          7    9.396E+00                                 F               0         Tower X translation displacement, node 3, m
          8   -2.308E+00                                 F               0         Tower Y translation displacement, node 3, m
          9   -2.751E-01                                 F               0         Tower Z translation displacement, node 3, m
         10    1.047E+01                                 F               0         Tower X translation displacement, node 4, m
         11   -2.850E+00                                 F               0         Tower Y translation displacement, node 4, m
         12   -3.335E-01                                 F               0         Tower Z translation displacement, node 4, m
         13    1.155E+01                                 F               0         Tower X translation displacement, node 5, m
         14   -3.396E+00                                 F               0         Tower Y translation displacement, node 5, m
         15   -3.930E-01                                 F               0         Tower Z translation displacement, node 5, m
         16    1.263E+01                                 F               0         Tower X translation displacement, node 6, m
         17   -3.944E+00                                 F               0         Tower Y translation displacement, node 6, m
         18   -4.531E-01                                 F               0         Tower Z translation displacement, node 6, m
         19    1.373E+01                                 F               0         Tower X translation displacement, node 7, m
         20   -4.495E+00                                 F               0         Tower Y translation displacement, node 7, m
         21   -5.139E-01                                 F               0         Tower Z translation displacement, node 7, m
         22    1.482E+01                                 F               0         Tower X translation displacement, node 8, m
         23   -5.048E+00                                 F               0         Tower Y translation displacement, node 8, m
         24   -5.751E-01                                 F               0         Tower Z translation displacement, node 8, m
         25    1.592E+01                                 F               0         Tower X translation displacement, node 9, m
         26   -5.602E+00                                 F               0         Tower Y translation displacement, node 9, m
         27   -6.365E-01                                 F               0         Tower Z translation displacement, node 9, m
         28    1.702E+01                                 F               0         Tower X translation displacement, node 10, m
         29   -6.157E+00                                 F               0         Tower Y translation displacement, node 10, m
         30   -6.982E-01                                 F               0         Tower Z translation displacement, node 10, m
         31    1.812E+01                                 F               0         Tower X translation displacement, node 11, m
         32   -6.713E+00                                 F               0         Tower Y translation displacement, node 11, m
         33   -7.600E-01                                 F               0         Tower Z translation displacement, node 11, m
         34    9.965E-01,  4.257E-03, -8.381E-02         F               0         Tower X orientation angle, node 1, rad
         35   -6.339E-04,  9.991E-01,  4.321E-02         F               0         Tower Y orientation angle, node 1, rad
         36    8.392E-02, -4.301E-02,  9.955E-01         F               0         Tower Z orientation angle, node 1, rad
         37    9.964E-01,  4.310E-03, -8.502E-02         F               0         Tower X orientation angle, node 2, rad
         38   -6.012E-04,  9.990E-01,  4.360E-02         F               0         Tower Y orientation angle, node 2, rad
         39    8.513E-02, -4.339E-02,  9.954E-01         F               0         Tower Z orientation angle, node 2, rad
         40    9.963E-01,  4.355E-03, -8.606E-02         F               0         Tower X orientation angle, node 3, rad
         41   -5.714E-04,  9.990E-01,  4.394E-02         F               0         Tower Y orientation angle, node 3, rad
         42    8.617E-02, -4.373E-02,  9.953E-01         F               0         Tower Z orientation angle, node 3, rad
         43    9.962E-01,  4.393E-03, -8.692E-02         F               0         Tower X orientation angle, node 4, rad
         44   -5.452E-04,  9.990E-01,  4.424E-02         F               0         Tower Y orientation angle, node 4, rad
         45    8.703E-02, -4.403E-02,  9.952E-01         F               0         Tower Z orientation angle, node 4, rad
         46    9.961E-01,  4.423E-03, -8.760E-02         F               0         Tower X orientation angle, node 5, rad
         47   -5.226E-04,  9.990E-01,  4.450E-02         F               0         Tower Y orientation angle, node 5, rad
         48    8.771E-02, -4.428E-02,  9.952E-01         F               0         Tower Z orientation angle, node 5, rad
         49    9.961E-01,  4.447E-03, -8.813E-02         F               0         Tower X orientation angle, node 6, rad
         50   -5.035E-04,  9.990E-01,  4.472E-02         F               0         Tower Y orientation angle, node 6, rad
         51    8.824E-02, -4.450E-02,  9.951E-01         F               0         Tower Z orientation angle, node 6, rad
         52    9.961E-01,  4.464E-03, -8.850E-02         F               0         Tower X orientation angle, node 7, rad
         53   -4.882E-04,  9.990E-01,  4.489E-02         F               0         Tower Y orientation angle, node 7, rad
         54    8.861E-02, -4.467E-02,  9.951E-01         F               0         Tower Z orientation angle, node 7, rad
         55    9.960E-01,  4.475E-03, -8.876E-02         F               0         Tower X orientation angle, node 8, rad
         56   -4.763E-04,  9.990E-01,  4.503E-02         F               0         Tower Y orientation angle, node 8, rad
         57    8.887E-02, -4.481E-02,  9.950E-01         F               0         Tower Z orientation angle, node 8, rad
         58    9.960E-01,  4.483E-03, -8.892E-02         F               0         Tower X orientation angle, node 9, rad
         59   -4.676E-04,  9.990E-01,  4.512E-02         F               0         Tower Y orientation angle, node 9, rad
         60    8.903E-02, -4.490E-02,  9.950E-01         F               0         Tower Z orientation angle, node 9, rad
         61    9.960E-01,  4.487E-03, -8.901E-02         F               0         Tower X orientation angle, node 10, rad
         62   -4.619E-04,  9.990E-01,  4.519E-02         F               0         Tower Y orientation angle, node 10, rad
         63    8.912E-02, -4.497E-02,  9.950E-01         F               0         Tower Z orientation angle, node 10, rad
         64    9.960E-01,  4.489E-03, -8.905E-02         F               0         Tower X orientation angle, node 11, rad
         65   -4.588E-04,  9.990E-01,  4.522E-02         F               0         Tower Y orientation angle, node 11, rad
         66    8.916E-02, -4.500E-02,  9.950E-01         F               0         Tower Z orientation angle, node 11, rad
         67   -4.780E-03                                 F               0         Tower X translation velocity, node 1, m/s
         68    1.322E-03                                 F               0         Tower Y translation velocity, node 1, m/s
         69    3.773E-03                                 F               0         Tower Z translation velocity, node 1, m/s
         70   -4.708E-03                                 F               0         Tower X translation velocity, node 2, m/s
         71    1.490E-03                                 F               0         Tower Y translation velocity, node 2, m/s
         72    3.774E-03                                 F               0         Tower Z translation velocity, node 2, m/s
         73   -4.634E-03                                 F               0         Tower X translation velocity, node 3, m/s
         74    1.656E-03                                 F               0         Tower Y translation velocity, node 3, m/s
         75    3.775E-03                                 F               0         Tower Z translation velocity, node 3, m/s
         76   -4.558E-03                                 F               0         Tower X translation velocity, node 4, m/s
         77    1.820E-03                                 F               0         Tower Y translation velocity, node 4, m/s
         78    3.776E-03                                 F               0         Tower Z translation velocity, node 4, m/s
         79   -4.478E-03                                 F               0         Tower X translation velocity, node 5, m/s
         80    1.982E-03                                 F               0         Tower Y translation velocity, node 5, m/s
         81    3.776E-03                                 F               0         Tower Z translation velocity, node 5, m/s
         82   -4.396E-03                                 F               0         Tower X translation velocity, node 6, m/s
         83    2.142E-03                                 F               0         Tower Y translation velocity, node 6, m/s
         84    3.776E-03                                 F               0         Tower Z translation velocity, node 6, m/s
         85   -4.311E-03                                 F               0         Tower X translation velocity, node 7, m/s
         86    2.301E-03                                 F               0         Tower Y translation velocity, node 7, m/s
         87    3.775E-03                                 F               0         Tower Z translation velocity, node 7, m/s
         88   -4.222E-03                                 F               0         Tower X translation velocity, node 8, m/s
         89    2.458E-03                                 F               0         Tower Y translation velocity, node 8, m/s
         90    3.774E-03                                 F               0         Tower Z translation velocity, node 8, m/s
         91   -4.131E-03                                 F               0         Tower X translation velocity, node 9, m/s
         92    2.613E-03                                 F               0         Tower Y translation velocity, node 9, m/s
         93    3.773E-03                                 F               0         Tower Z translation velocity, node 9, m/s
         94   -4.038E-03                                 F               0         Tower X translation velocity, node 10, m/s
         95    2.768E-03                                 F               0         Tower Y translation velocity, node 10, m/s
         96    3.772E-03                                 F               0         Tower Z translation velocity, node 10, m/s
         97   -3.943E-03                                 F               0         Tower X translation velocity, node 11, m/s
         98    2.922E-03                                 F               0         Tower Y translation velocity, node 11, m/s
         99    3.770E-03                                 F               0         Tower Z translation velocity, node 11, m/s
        100    1.887E+01                                 F               0         Hub X translation displacement, node 1, m
        101   -7.115E+00                                 F               0         Hub Y translation displacement, node 1, m
        102    1.626E-01                                 F               0         Hub Z translation displacement, node 1, m
        103    9.812E-01,  9.168E-03, -1.926E-01         F               0         Hub X orientation angle, node 1, rad
        104   -5.449E-02,  9.713E-01, -2.314E-01         F               0         Hub Y orientation angle, node 1, rad
        105    1.849E-01,  2.376E-01,  9.536E-01         F               0         Hub Z orientation angle, node 1, rad
        106    6.941E-01                                 F               0         Hub X rotation velocity, node 1, rad/s
        107    6.494E-03                                 F               0         Hub Y rotation velocity, node 1, rad/s
        108   -1.362E-01                                 F               0         Hub Z rotation velocity, node 1, rad/s
        109    9.824E-01, -1.965E-02, -1.856E-01         F               0         Blade root 1 X orientation angle, node 1, rad
        110   -2.536E-02,  9.712E-01, -2.370E-01         F               0         Blade root 1 Y orientation angle, node 1, rad
        111    1.849E-01,  2.376E-01,  9.536E-01         F               0         Blade root 1 Z orientation angle, node 1, rad
        112    9.752E-01,  1.747E-02, -2.204E-01         F               0         Blade root 2 X orientation angle, node 1, rad
        113    2.164E-01, -2.795E-01,  9.354E-01         F               0         Blade root 2 Y orientation angle, node 1, rad
        114   -4.527E-02, -9.600E-01, -2.764E-01         F               0         Blade root 2 Z orientation angle, node 1, rad
        115    9.848E-01,  2.968E-02, -1.714E-01         F               0         Blade root 3 X orientation angle, node 1, rad
        116   -1.037E-01, -6.908E-01, -7.155E-01         F               0         Blade root 3 Y orientation angle, node 1, rad
        117   -1.397E-01,  7.224E-01, -6.772E-01         F               0         Blade root 3 Z orientation angle, node 1, rad
        118    1.931E+01                                 F               0         Blade 1 X translation displacement, node 1, m
        119   -5.799E+00                                 F               0         Blade 1 Y translation displacement, node 1, m
        120   -6.412E-02                                 F               0         Blade 1 Z translation displacement, node 1, m
        121    1.942E+01                                 F               0         Blade 1 X translation displacement, node 2, m
        122   -5.482E+00                                 F               0         Blade 1 Y translation displacement, node 2, m
        123   -1.187E-01                                 F               0         Blade 1 Z translation displacement, node 2, m
        124    2.088E+01                                 F               0         Blade 1 X translation displacement, node 3, m
        125   -1.169E+00                                 F               0         Blade 1 Y translation displacement, node 3, m
        126   -8.615E-01                                 F               0         Blade 1 Z translation displacement, node 3, m
        127    2.119E+01                                 F               0         Blade 1 X translation displacement, node 4, m
        128   -2.503E-01                                 F               0         Blade 1 Y translation displacement, node 4, m
        129   -1.020E+00                                 F               0         Blade 1 Z translation displacement, node 4, m
        130    2.150E+01                                 F               0         Blade 1 X translation displacement, node 5, m
        131    6.687E-01                                 F               0         Blade 1 Y translation displacement, node 5, m
        132   -1.178E+00                                 F               0         Blade 1 Z translation displacement, node 5, m
        133    2.181E+01                                 F               0         Blade 1 X translation displacement, node 6, m
        134    1.588E+00                                 F               0         Blade 1 Y translation displacement, node 6, m
        135   -1.336E+00                                 F               0         Blade 1 Z translation displacement, node 6, m
        136    2.212E+01                                 F               0         Blade 1 X translation displacement, node 7, m
        137    2.506E+00                                 F               0         Blade 1 Y translation displacement, node 7, m
        138   -1.495E+00                                 F               0         Blade 1 Z translation displacement, node 7, m
        139    2.243E+01                                 F               0         Blade 1 X translation displacement, node 8, m
        140    3.425E+00                                 F               0         Blade 1 Y translation displacement, node 8, m
        141   -1.653E+00                                 F               0         Blade 1 Z translation displacement, node 8, m
        142    2.275E+01                                 F               0         Blade 1 X translation displacement, node 9, m
        143    4.344E+00                                 F               0         Blade 1 Y translation displacement, node 9, m
        144   -1.811E+00                                 F               0         Blade 1 Z translation displacement, node 9, m
        145    2.306E+01                                 F               0         Blade 1 X translation displacement, node 10, m
        146    5.263E+00                                 F               0         Blade 1 Y translation displacement, node 10, m
        147   -1.969E+00                                 F               0         Blade 1 Z translation displacement, node 10, m
        148    2.337E+01                                 F               0         Blade 1 X translation displacement, node 11, m
        149    6.182E+00                                 F               0         Blade 1 Y translation displacement, node 11, m
        150   -2.128E+00                                 F               0         Blade 1 Z translation displacement, node 11, m
        151    2.368E+01                                 F               0         Blade 1 X translation displacement, node 12, m
        152    7.101E+00                                 F               0         Blade 1 Y translation displacement, node 12, m
        153   -2.286E+00                                 F               0         Blade 1 Z translation displacement, node 12, m
        154    2.399E+01                                 F               0         Blade 1 X translation displacement, node 13, m
        155    8.020E+00                                 F               0         Blade 1 Y translation displacement, node 13, m
        156   -2.444E+00                                 F               0         Blade 1 Z translation displacement, node 13, m
        157    2.430E+01                                 F               0         Blade 1 X translation displacement, node 14, m
        158    8.939E+00                                 F               0         Blade 1 Y translation displacement, node 14, m
        159   -2.602E+00                                 F               0         Blade 1 Z translation displacement, node 14, m
        160    2.461E+01                                 F               0         Blade 1 X translation displacement, node 15, m
        161    9.858E+00                                 F               0         Blade 1 Y translation displacement, node 15, m
        162   -2.761E+00                                 F               0         Blade 1 Z translation displacement, node 15, m
        163    2.492E+01                                 F               0         Blade 1 X translation displacement, node 16, m
        164    1.078E+01                                 F               0         Blade 1 Y translation displacement, node 16, m
        165   -2.919E+00                                 F               0         Blade 1 Z translation displacement, node 16, m
        166    2.523E+01                                 F               0         Blade 1 X translation displacement, node 17, m
        167    1.170E+01                                 F               0         Blade 1 Y translation displacement, node 17, m
        168   -3.077E+00                                 F               0         Blade 1 Z translation displacement, node 17, m
        169    2.554E+01                                 F               0         Blade 1 X translation displacement, node 18, m
        170    1.261E+01                                 F               0         Blade 1 Y translation displacement, node 18, m
        171   -3.235E+00                                 F               0         Blade 1 Z translation displacement, node 18, m
        172    2.585E+01                                 F               0         Blade 1 X translation displacement, node 19, m
        173    1.353E+01                                 F               0         Blade 1 Y translation displacement, node 19, m
        174   -3.394E+00                                 F               0         Blade 1 Z translation displacement, node 19, m
        175    2.617E+01                                 F               0         Blade 1 X translation displacement, node 20, m
        176    1.445E+01                                 F               0         Blade 1 Y translation displacement, node 20, m
        177   -3.552E+00                                 F               0         Blade 1 Z translation displacement, node 20, m
        178    2.648E+01                                 F               0         Blade 1 X translation displacement, node 21, m
        179    1.537E+01                                 F               0         Blade 1 Y translation displacement, node 21, m
        180   -3.710E+00                                 F               0         Blade 1 Z translation displacement, node 21, m
        181    2.679E+01                                 F               0         Blade 1 X translation displacement, node 22, m
        182    1.629E+01                                 F               0         Blade 1 Y translation displacement, node 22, m
        183   -3.868E+00                                 F               0         Blade 1 Z translation displacement, node 22, m
        184    2.710E+01                                 F               0         Blade 1 X translation displacement, node 23, m
        185    1.721E+01                                 F               0         Blade 1 Y translation displacement, node 23, m
        186   -4.027E+00                                 F               0         Blade 1 Z translation displacement, node 23, m
        187    2.741E+01                                 F               0         Blade 1 X translation displacement, node 24, m
        188    1.813E+01                                 F               0         Blade 1 Y translation displacement, node 24, m
        189   -4.185E+00                                 F               0         Blade 1 Z translation displacement, node 24, m
        190    2.772E+01                                 F               0         Blade 1 X translation displacement, node 25, m
        191    1.905E+01                                 F               0         Blade 1 Y translation displacement, node 25, m
        192   -4.343E+00                                 F               0         Blade 1 Z translation displacement, node 25, m
        193    2.803E+01                                 F               0         Blade 1 X translation displacement, node 26, m
        194    1.997E+01                                 F               0         Blade 1 Y translation displacement, node 26, m
        195   -4.502E+00                                 F               0         Blade 1 Z translation displacement, node 26, m
        196    2.834E+01                                 F               0         Blade 1 X translation displacement, node 27, m
        197    2.088E+01                                 F               0         Blade 1 Y translation displacement, node 27, m
        198   -4.660E+00                                 F               0         Blade 1 Z translation displacement, node 27, m
        199    2.861E+01                                 F               0         Blade 1 X translation displacement, node 28, m
        200    2.166E+01                                 F               0         Blade 1 Y translation displacement, node 28, m
        201   -4.794E+00                                 F               0         Blade 1 Z translation displacement, node 28, m
        202    8.859E-01, -4.604E-01, -5.710E-02         F               0         Blade 1 X orientation angle, node 1, rad
        203    4.254E-01,  8.554E-01, -2.956E-01         F               0         Blade 1 Y orientation angle, node 1, rad
        204    1.849E-01,  2.376E-01,  9.536E-01         F               0         Blade 1 Z orientation angle, node 1, rad
        205    8.859E-01, -4.604E-01, -5.710E-02         F               0         Blade 1 X orientation angle, node 2, rad
        206    4.254E-01,  8.554E-01, -2.956E-01         F               0         Blade 1 Y orientation angle, node 2, rad
        207    1.849E-01,  2.376E-01,  9.536E-01         F               0         Blade 1 Z orientation angle, node 2, rad
        208    9.615E-01, -2.445E-01, -1.255E-01         F               0         Blade 1 X orientation angle, node 3, rad
        209    2.033E-01,  9.401E-01, -2.736E-01         F               0         Blade 1 Y orientation angle, node 3, rad
        210    1.849E-01,  2.376E-01,  9.536E-01         F               0         Blade 1 Z orientation angle, node 3, rad
        211    9.692E-01, -2.046E-01, -1.370E-01         F               0         Blade 1 X orientation angle, node 4, rad
        212    1.626E-01,  9.496E-01, -2.681E-01         F               0         Blade 1 Y orientation angle, node 4, rad
        213    1.849E-01,  2.376E-01,  9.536E-01         F               0         Blade 1 Z orientation angle, node 4, rad
        214    9.741E-01, -1.730E-01, -1.458E-01         F               0         Blade 1 X orientation angle, node 5, rad
        215    1.303E-01,  9.558E-01, -2.634E-01         F               0         Blade 1 Y orientation angle, node 5, rad
        216    1.849E-01,  2.376E-01,  9.536E-01         F               0         Blade 1 Z orientation angle, node 5, rad
        217    9.772E-01, -1.476E-01, -1.527E-01         F               0         Blade 1 X orientation angle, node 6, rad
        218    1.045E-01,  9.601E-01, -2.595E-01         F               0         Blade 1 Y orientation angle, node 6, rad
        219    1.849E-01,  2.376E-01,  9.536E-01         F               0         Blade 1 Z orientation angle, node 6, rad
        220    9.792E-01, -1.266E-01, -1.584E-01         F               0         Blade 1 X orientation angle, node 7, rad
        221    8.311E-02,  9.631E-01, -2.561E-01         F               0         Blade 1 Y orientation angle, node 7, rad
        222    1.849E-01,  2.376E-01,  9.536E-01         F               0         Blade 1 Z orientation angle, node 7, rad
        223    9.806E-01, -1.091E-01, -1.630E-01         F               0         Blade 1 X orientation angle, node 8, rad
        224    6.533E-02,  9.652E-01, -2.531E-01         F               0         Blade 1 Y orientation angle, node 8, rad
        225    1.849E-01,  2.376E-01,  9.536E-01         F               0         Blade 1 Z orientation angle, node 8, rad
        226    9.815E-01, -9.427E-02, -1.668E-01         F               0         Blade 1 X orientation angle, node 9, rad
        227    5.026E-02,  9.668E-01, -2.506E-01         F               0         Blade 1 Y orientation angle, node 9, rad