
Linearized model: Predictions were generated on 11-Jan-2024 at 12:32:35 using OpenFAST, compiled as a 64-bit application using single precision at commit v3.5.1
 linked with  NWTC Subroutine Library; ElastoDyn; InflowWind; AeroDyn; ServoDyn; HydroDyn; MoorDyn (v2.0.0, 2023-09-18)

Description from the FAST input file: CCT-9 Campign 4 model. Input files to be run with OpenFAST 3.5.0. GitHub branch from Lu Wang (https://github.com/luwang00/openfast/tree/dev) compiled on March 7, 2023.

Simulation information:
   Simulation time:                   508.1500 s
   Rotor Speed:                         0.7076 rad/s
   Azimuth:                             3.0226 rad
   Wind Speed:                          8.0000 m/s
   Number of continuous states:         0
   Number of discrete states:           0
   Number of constraint states:         0
   Number of inputs:                   54
   Number of outputs:                   0
   Jacobians included in this file?    No

Order of inputs:
     Column   Operating Point                     Rotating Frame? Derivative Order Description
   ---------- ---------------                     --------------- ---------------- -----------
          1    4.449E+00                                 F               0         CoupledKinematics X translation displacement, node 1, m
          2    3.489E-01                                 F               0         CoupledKinematics Y translation displacement, node 1, m
          3   -4.732E+00                                 F               0         CoupledKinematics Z translation displacement, node 1, m
          4    4.393E+00                                 F               0         CoupledKinematics X translation displacement, node 2, m
          5    2.489E-01                                 F               0         CoupledKinematics Y translation displacement, node 2, m
          6   -2.031E-01                                 F               0         CoupledKinematics Z translation displacement, node 2, m
          7    4.735E+00                                 F               0         CoupledKinematics X translation displacement, node 3, m
          8   -7.473E-02                                 F               0         CoupledKinematics Y translation displacement, node 3, m
          9    4.984E+00                                 F               0         CoupledKinematics Z translation displacement, node 3, m
         10    9.965E-01,  4.206E-03, -8.386E-02         F               0         CoupledKinematics X orientation angle, node 1, rad
         11   -5.642E-04,  9.991E-01,  4.340E-02         F               0         CoupledKinematics Y orientation angle, node 1, rad
         12    8.397E-02, -4.319E-02,  9.955E-01         F               0         CoupledKinematics Z orientation angle, node 1, rad
         13    9.965E-01,  4.206E-03, -8.386E-02         F               0         CoupledKinematics X orientation angle, node 2, rad
         14   -5.642E-04,  9.991E-01,  4.340E-02         F               0         CoupledKinematics Y orientation angle, node 2, rad
         15    8.397E-02, -4.319E-02,  9.955E-01         F               0         CoupledKinematics Z orientation angle, node 2, rad
         16    9.965E-01,  4.206E-03, -8.386E-02         F               0         CoupledKinematics X orientation angle, node 3, rad
         17   -5.642E-04,  9.991E-01,  4.340E-02         F               0         CoupledKinematics Y orientation angle, node 3, rad
         18    8.397E-02, -4.319E-02,  9.955E-01         F               0         CoupledKinematics Z orientation angle, node 3, rad
         19   -6.546E-03                                 F               0         CoupledKinematics X translation velocity, node 1, m/s
         20    1.050E-03                                 F               0         CoupledKinematics Y translation velocity, node 1, m/s
         21   -3.728E-03                                 F               0         CoupledKinematics Z translation velocity, node 1, m/s
         22   -4.676E-03                                 F               0         CoupledKinematics X translation velocity, node 2, m/s
         23    5.140E-04                                 F               0         CoupledKinematics Y translation velocity, node 2, m/s
         24    8.763E-03                                 F               0         CoupledKinematics Z translation velocity, node 2, m/s
         25   -5.551E-03                                 F               0         CoupledKinematics X translation velocity, node 3, m/s
         26    1.452E-03                                 F               0         CoupledKinematics Y translation velocity, node 3, m/s
         27    3.267E-03                                 F               0         CoupledKinematics Z translation velocity, node 3, m/s
         28    1.213E-04                                 F               0         CoupledKinematics X rotation velocity, node 1, rad/s
         29    8.976E-06                                 F               0         CoupledKinematics Y rotation velocity, node 1, rad/s
         30   -1.778E-05                                 F               0         CoupledKinematics Z rotation velocity, node 1, rad/s
         31    1.213E-04                                 F               0         CoupledKinematics X rotation velocity, node 2, rad/s
         32    8.976E-06                                 F               0         CoupledKinematics Y rotation velocity, node 2, rad/s
         33   -1.778E-05                                 F               0         CoupledKinematics Z rotation velocity, node 2, rad/s
         34    1.213E-04                                 F               0         CoupledKinematics X rotation velocity, node 3, rad/s
         35    8.976E-06                                 F               0         CoupledKinematics Y rotation velocity, node 3, rad/s
         36   -1.778E-05                                 F               0         CoupledKinematics Z rotation velocity, node 3, rad/s
         37   -6.392E-05                                 F               0         CoupledKinematics X translation acceleration, node 1, m/s^2
         38    4.097E-05                                 F               0         CoupledKinematics Y translation acceleration, node 1, m/s^2
         39   -2.778E-03                                 F               0         CoupledKinematics Z translation acceleration, node 1, m/s^2
         40    3.516E-05                                 F               0         CoupledKinematics X translation acceleration, node 2, m/s^2
         41   -1.178E-04                                 F               0         CoupledKinematics Y translation acceleration, node 2, m/s^2
         42    8.106E-04                                 F               0         CoupledKinematics Z translation acceleration, node 2, m/s^2
         43   -7.846E-05                                 F               0         CoupledKinematics X translation acceleration, node 3, m/s^2
         44   -1.804E-04                                 F               0         CoupledKinematics Y translation acceleration, node 3, m/s^2
         45   -1.752E-03                                 F               0         CoupledKinematics Z translation acceleration, node 3, m/s^2
         46    3.494E-05                                 F               0         CoupledKinematics X rotation acceleration, node 1, rad/s^2
         47   -8.535E-06                                 F               0         CoupledKinematics Y rotation acceleration, node 1, rad/s^2
         48   -1.337E-06                                 F               0         CoupledKinematics Z rotation acceleration, node 1, rad/s^2
         49    3.494E-05                                 F               0         CoupledKinematics X rotation acceleration, node 2, rad/s^2
         50   -8.535E-06                                 F               0         CoupledKinematics Y rotation acceleration, node 2, rad/s^2
         51   -1.337E-06                                 F               0         CoupledKinematics Z rotation acceleration, node 2, rad/s^2
         52    3.494E-05                                 F               0         CoupledKinematics X rotation acceleration, node 3, rad/s^2
         53   -8.535E-06                                 F               0         CoupledKinematics Y rotation acceleration, node 3, rad/s^2
         54   -1.337E-06                                 F               0         CoupledKinematics Z rotation acceleration, node 3, rad/s^2


Linearized state matrices:

