
Linearized model: Predictions were generated on 11-Jan-2024 at 12:32:35 using OpenFAST, compiled as a 64-bit application using single precision at commit v3.5.1
 linked with  NWTC Subroutine Library; ElastoDyn; InflowWind; AeroDyn; ServoDyn; HydroDyn; MoorDyn (v2.0.0, 2023-09-18)

Description from the FAST input file: CCT-9 Campign 4 model. Input files to be run with OpenFAST 3.5.0. GitHub branch from Lu Wang (https://github.com/luwang00/openfast/tree/dev) compiled on March 7, 2023.

Simulation information:
   Simulation time:                   501.9750 s
   Rotor Speed:                         0.7076 rad/s
   Azimuth:                             4.9377 rad
   Wind Speed:                          8.0000 m/s
   Number of continuous states:         0
   Number of discrete states:           0
   Number of constraint states:         0
   Number of inputs:                   54
   Number of outputs:                   0
   Jacobians included in this file?    No

Order of inputs:
     Column   Operating Point                     Rotating Frame? Derivative Order Description
   ---------- ---------------                     --------------- ---------------- -----------
          1    4.484E+00                                 F               0         CoupledKinematics X translation displacement, node 1, m
          2    3.442E-01                                 F               0         CoupledKinematics Y translation displacement, node 1, m
          3   -4.746E+00                                 F               0         CoupledKinematics Z translation displacement, node 1, m
          4    4.422E+00                                 F               0         CoupledKinematics X translation displacement, node 2, m
          5    2.448E-01                                 F               0         CoupledKinematics Y translation displacement, node 2, m
          6   -2.330E-01                                 F               0         CoupledKinematics Z translation displacement, node 2, m
          7    4.766E+00                                 F               0         CoupledKinematics X translation displacement, node 3, m
          8   -8.363E-02                                 F               0         CoupledKinematics Y translation displacement, node 3, m
          9    4.957E+00                                 F               0         CoupledKinematics Z translation displacement, node 3, m
         10    9.965E-01,  4.256E-03, -8.381E-02         F               0         CoupledKinematics X orientation angle, node 1, rad
         11   -6.299E-04,  9.991E-01,  4.324E-02         F               0         CoupledKinematics Y orientation angle, node 1, rad
         12    8.391E-02, -4.304E-02,  9.955E-01         F               0         CoupledKinematics Z orientation angle, node 1, rad
         13    9.965E-01,  4.256E-03, -8.381E-02         F               0         CoupledKinematics X orientation angle, node 2, rad
         14   -6.299E-04,  9.991E-01,  4.324E-02         F               0         CoupledKinematics Y orientation angle, node 2, rad
         15    8.391E-02, -4.304E-02,  9.955E-01         F               0         CoupledKinematics Z orientation angle, node 2, rad
         16    9.965E-01,  4.256E-03, -8.381E-02         F               0         CoupledKinematics X orientation angle, node 3, rad
         17   -6.299E-04,  9.991E-01,  4.324E-02         F               0         CoupledKinematics Y orientation angle, node 3, rad
         18    8.391E-02, -4.304E-02,  9.955E-01         F               0         CoupledKinematics Z orientation angle, node 3, rad
         19   -4.223E-03                                 F               0         CoupledKinematics X translation velocity, node 1, m/s
         20    7.711E-04                                 F               0         CoupledKinematics Y translation velocity, node 1, m/s
         21    3.852E-03                                 F               0         CoupledKinematics Z translation velocity, node 1, m/s
         22   -4.942E-03                                 F               0         CoupledKinematics X translation velocity, node 2, m/s
         23    9.027E-04                                 F               0         CoupledKinematics Y translation velocity, node 2, m/s
         24    7.299E-04                                 F               0         CoupledKinematics Z translation velocity, node 2, m/s
         25   -4.538E-03                                 F               0         CoupledKinematics X translation velocity, node 3, m/s
         26    4.225E-04                                 F               0         CoupledKinematics Y translation velocity, node 3, m/s
         27    2.802E-03                                 F               0         CoupledKinematics Z translation velocity, node 3, m/s
         28   -3.039E-05                                 F               0         CoupledKinematics X rotation velocity, node 1, rad/s
         29    5.635E-06                                 F               0         CoupledKinematics Y rotation velocity, node 1, rad/s
         30    7.236E-06                                 F               0         CoupledKinematics Z rotation velocity, node 1, rad/s
         31   -3.039E-05                                 F               0         CoupledKinematics X rotation velocity, node 2, rad/s
         32    5.635E-06                                 F               0         CoupledKinematics Y rotation velocity, node 2, rad/s
         33    7.236E-06                                 F               0         CoupledKinematics Z rotation velocity, node 2, rad/s
         34   -3.039E-05                                 F               0         CoupledKinematics X rotation velocity, node 3, rad/s
         35    5.635E-06                                 F               0         CoupledKinematics Y rotation velocity, node 3, rad/s
         36    7.236E-06                                 F               0         CoupledKinematics Z rotation velocity, node 3, rad/s
         37   -6.122E-04                                 F               0         CoupledKinematics X translation acceleration, node 1, m/s^2
         38   -1.920E-05                                 F               0         CoupledKinematics Y translation acceleration, node 1, m/s^2
         39    4.507E-04                                 F               0         CoupledKinematics Z translation acceleration, node 1, m/s^2
         40    4.143E-05                                 F               0         CoupledKinematics X translation acceleration, node 2, m/s^2
         41   -8.461E-05                                 F               0         CoupledKinematics Y translation acceleration, node 2, m/s^2
         42    2.050E-03                                 F               0         CoupledKinematics Z translation acceleration, node 2, m/s^2
         43   -3.447E-04                                 F               0         CoupledKinematics X translation acceleration, node 3, m/s^2
         44    4.239E-04                                 F               0         CoupledKinematics Y translation acceleration, node 3, m/s^2
         45    5.694E-04                                 F               0         CoupledKinematics Z translation acceleration, node 3, m/s^2
         46    1.560E-05                                 F               0         CoupledKinematics X rotation acceleration, node 1, rad/s^2
         47   -7.626E-06                                 F               0         CoupledKinematics Y rotation acceleration, node 1, rad/s^2
         48   -6.687E-06                                 F               0         CoupledKinematics Z rotation acceleration, node 1, rad/s^2
         49    1.560E-05                                 F               0         CoupledKinematics X rotation acceleration, node 2, rad/s^2
         50   -7.626E-06                                 F               0         CoupledKinematics Y rotation acceleration, node 2, rad/s^2
         51   -6.687E-06                                 F               0         CoupledKinematics Z rotation acceleration, node 2, rad/s^2
         52    1.560E-05                                 F               0         CoupledKinematics X rotation acceleration, node 3, rad/s^2
         53   -7.626E-06                                 F               0         CoupledKinematics Y rotation acceleration, node 3, rad/s^2
         54   -6.687E-06                                 F               0         CoupledKinematics Z rotation acceleration, node 3, rad/s^2


Linearized state matrices:

