
Linearized model: Predictions were generated on 11-Jan-2024 at 12:32:35 using OpenFAST, compiled as a 64-bit application using single precision at commit v3.5.1
 linked with  NWTC Subroutine Library; ElastoDyn; InflowWind; AeroDyn; ServoDyn; HydroDyn; MoorDyn (v2.0.0, 2023-09-18)

Description from the FAST input file: CCT-9 Campign 4 model. Input files to be run with OpenFAST 3.5.0. GitHub branch from Lu Wang (https://github.com/luwang00/openfast/tree/dev) compiled on March 7, 2023.

Simulation information:
   Simulation time:                   500.7500 s
   Rotor Speed:                         0.7077 rad/s
   Azimuth:                             4.0708 rad
   Wind Speed:                          8.0000 m/s
   Number of continuous states:        22
   Number of discrete states:           0
   Number of constraint states:         0
   Number of inputs:                 1890
   Number of outputs:                  38
   Jacobians included in this file?    No

Order of continuous states:
   Row/Column Operating Point                     Rotating Frame? Derivative Order Description
   ---------- ---------------                     --------------- ---------------- -----------
          1    5.767E+00                                 F               2         Platform horizontal surge translation DOF (internal DOF index = DOF_Sg), m
          2   -4.504E-01                                 F               2         Platform horizontal sway translation DOF (internal DOF index = DOF_Sw), m
          3   -8.743E-02                                 F               2         Platform vertical heave translation DOF (internal DOF index = DOF_Hv), m
          4    4.339E-02                                 F               2         Platform roll tilt rotation DOF (internal DOF index = DOF_R), rad
          5    8.422E-02                                 F               2         Platform pitch tilt rotation DOF (internal DOF index = DOF_P), rad
          6    2.441E-03                                 F               2         Platform yaw rotation DOF (internal DOF index = DOF_Y), rad
          7    4.623E-01                                 F               2         1st tower fore-aft bending mode DOF (internal DOF index = DOF_TFA1), m
          8    1.677E-01                                 F               2         1st tower side-to-side bending mode DOF (internal DOF index = DOF_TSS1), m
          9    1.461E-03                                 F               2         2nd tower fore-aft bending mode DOF (internal DOF index = DOF_TFA2), m
         10    7.420E-05                                 F               2         2nd tower side-to-side bending mode DOF (internal DOF index = DOF_TSS2), m
         11    2.500E+00                                 F               2         Variable speed generator DOF (internal DOF index = DOF_GeAz), rad
         12   -4.005E-03                                 F               2         First time derivative of Platform horizontal surge translation DOF (internal DOF index = DOF_Sg), m/s
         13    1.452E-03                                 F               2         First time derivative of Platform horizontal sway translation DOF (internal DOF index = DOF_Sw), m/s
         14    1.093E-03                                 F               2         First time derivative of Platform vertical heave translation DOF (internal DOF index = DOF_Hv), m/s
         15   -5.856E-05                                 F               2         First time derivative of Platform roll tilt rotation DOF (internal DOF index = DOF_R), rad/s
         16    1.099E-05                                 F               2         First time derivative of Platform pitch tilt rotation DOF (internal DOF index = DOF_P), rad/s
         17    1.319E-05                                 F               2         First time derivative of Platform yaw rotation DOF (internal DOF index = DOF_Y), rad/s
         18   -3.103E-04                                 F               2         First time derivative of 1st tower fore-aft bending mode DOF (internal DOF index = DOF_TFA1), m/s
         19   -8.091E-04                                 F               2         First time derivative of 1st tower side-to-side bending mode DOF (internal DOF index = DOF_TSS1), m/s
         20    1.822E-06                                 F               2         First time derivative of 2nd tower fore-aft bending mode DOF (internal DOF index = DOF_TFA2), m/s
         21    4.003E-07                                 F               2         First time derivative of 2nd tower side-to-side bending mode DOF (internal DOF index = DOF_TSS2), m/s
         22    7.077E-01                                 F               2         First time derivative of Variable speed generator DOF (internal DOF index = DOF_GeAz), rad/s

Order of continuous state derivatives:
   Row/Column Operating Point                     Rotating Frame? Derivative Order Description
   ---------- ---------------                     --------------- ---------------- -----------
          1   -4.005E-03                                 F               2         First time derivative of Platform horizontal surge translation DOF (internal DOF index = DOF_Sg), m/s
          2    1.452E-03                                 F               2         First time derivative of Platform horizontal sway translation DOF (internal DOF index = DOF_Sw), m/s
          3    1.093E-03                                 F               2         First time derivative of Platform vertical heave translation DOF (internal DOF index = DOF_Hv), m/s
          4   -5.856E-05                                 F               2         First time derivative of Platform roll tilt rotation DOF (internal DOF index = DOF_R), rad/s
          5    1.099E-05                                 F               2         First time derivative of Platform pitch tilt rotation DOF (internal DOF index = DOF_P), rad/s
          6    1.319E-05                                 F               2         First time derivative of Platform yaw rotation DOF (internal DOF index = DOF_Y), rad/s
          7   -3.103E-04                                 F               2         First time derivative of 1st tower fore-aft bending mode DOF (internal DOF index = DOF_TFA1), m/s
          8   -8.091E-04                                 F               2         First time derivative of 1st tower side-to-side bending mode DOF (internal DOF index = DOF_TSS1), m/s
          9    1.822E-06                                 F               2         First time derivative of 2nd tower fore-aft bending mode DOF (internal DOF index = DOF_TFA2), m/s
         10    4.003E-07                                 F               2         First time derivative of 2nd tower side-to-side bending mode DOF (internal DOF index = DOF_TSS2), m/s
         11    7.077E-01                                 F               2         First time derivative of Variable speed generator DOF (internal DOF index = DOF_GeAz), rad/s
         12   -3.226E-04                                 F               2         First time derivative of First time derivative of Platform horizontal surge translation DOF (internal DOF index = DOF_Sg), m/s/s
         13   -3.720E-04                                 F               2         First time derivative of First time derivative of Platform horizontal sway translation DOF (internal DOF index = DOF_Sw), m/s/s
         14    1.216E-03                                 F               2         First time derivative of First time derivative of Platform vertical heave translation DOF (internal DOF index = DOF_Hv), m/s/s
         15    2.956E-05                                 F               2         First time derivative of First time derivative of Platform roll tilt rotation DOF (internal DOF index = DOF_R), rad/s/s
         16    1.405E-06                                 F               2         First time derivative of First time derivative of Platform pitch tilt rotation DOF (internal DOF index = DOF_P), rad/s/s
         17   -3.720E-06                                 F               2         First time derivative of First time derivative of Platform yaw rotation DOF (internal DOF index = DOF_Y), rad/s/s
         18   -8.689E-04                                 F               2         First time derivative of First time derivative of 1st tower fore-aft bending mode DOF (internal DOF index = DOF_TFA1), m/s/s
         19   -2.969E-05                                 F               2         First time derivative of First time derivative of 1st tower side-to-side bending mode DOF (internal DOF index = DOF_TSS1), m/s/s
         20    1.021E-06                                 F               2         First time derivative of First time derivative of 2nd tower fore-aft bending mode DOF (internal DOF index = DOF_TFA2), m/s/s
         21    1.897E-06                                 F               2         First time derivative of First time derivative of 2nd tower side-to-side bending mode DOF (internal DOF index = DOF_TSS2), m/s/s
         22    7.222E-06                                 F               2         First time derivative of First time derivative of Variable speed generator DOF (internal DOF index = DOF_GeAz), rad/s/s

Order of inputs:
     Column   Operating Point                     Rotating Frame? Derivative Order Description
   ---------- ---------------                     --------------- ---------------- -----------
          1    3.903E+01                                 F               0         Blade 1 X force, node 1, N
          2   -1.694E+01                                 F               0         Blade 1 Y force, node 1, N
          3   -3.365E+01                                 F               0         Blade 1 Z force, node 1, N
          4    1.837E+02                                 F               0         Blade 1 X force, node 2, N
          5   -3.320E+01                                 F               0         Blade 1 Y force, node 2, N
          6   -8.852E+01                                 F               0         Blade 1 Z force, node 2, N
          7    2.610E+02                                 F               0         Blade 1 X force, node 3, N
          8   -1.072E+01                                 F               0         Blade 1 Y force, node 3, N
          9   -7.098E+01                                 F               0         Blade 1 Z force, node 3, N
         10    3.579E+02                                 F               0         Blade 1 X force, node 4, N
         11    8.030E+00                                 F               0         Blade 1 Y force, node 4, N
         12   -6.319E+01                                 F               0         Blade 1 Z force, node 4, N
         13    4.548E+02                                 F               0         Blade 1 X force, node 5, N
         14    2.678E+01                                 F               0         Blade 1 Y force, node 5, N
         15   -5.540E+01                                 F               0         Blade 1 Z force, node 5, N
         16    5.517E+02                                 F               0         Blade 1 X force, node 6, N
         17    4.552E+01                                 F               0         Blade 1 Y force, node 6, N
         18   -4.761E+01                                 F               0         Blade 1 Z force, node 6, N
         19    6.486E+02                                 F               0         Blade 1 X force, node 7, N
         20    6.427E+01                                 F               0         Blade 1 Y force, node 7, N
         21   -3.982E+01                                 F               0         Blade 1 Z force, node 7, N
         22    7.455E+02                                 F               0         Blade 1 X force, node 8, N
         23    8.301E+01                                 F               0         Blade 1 Y force, node 8, N
         24   -3.203E+01                                 F               0         Blade 1 Z force, node 8, N
         25    8.424E+02                                 F               0         Blade 1 X force, node 9, N
         26    1.018E+02                                 F               0         Blade 1 Y force, node 9, N
         27   -2.424E+01                                 F               0         Blade 1 Z force, node 9, N
         28    9.393E+02                                 F               0         Blade 1 X force, node 10, N
         29    1.205E+02                                 F               0         Blade 1 Y force, node 10, N
         30   -1.646E+01                                 F               0         Blade 1 Z force, node 10, N
         31    1.036E+03                                 F               0         Blade 1 X force, node 11, N
         32    1.392E+02                                 F               0         Blade 1 Y force, node 11, N
         33   -8.667E+00                                 F               0         Blade 1 Z force, node 11, N
         34    1.133E+03                                 F               0         Blade 1 X force, node 12, N
         35    1.580E+02                                 F               0         Blade 1 Y force, node 12, N
         36   -8.787E-01                                 F               0         Blade 1 Z force, node 12, N
         37    1.230E+03                                 F               0         Blade 1 X force, node 13, N
         38    1.767E+02                                 F               0         Blade 1 Y force, node 13, N
         39    6.910E+00                                 F               0         Blade 1 Z force, node 13, N
         40    1.327E+03                                 F               0         Blade 1 X force, node 14, N
         41    1.955E+02                                 F               0         Blade 1 Y force, node 14, N
         42    1.470E+01                                 F               0         Blade 1 Z force, node 14, N
         43    1.424E+03                                 F               0         Blade 1 X force, node 15, N
         44    2.142E+02                                 F               0         Blade 1 Y force, node 15, N
         45    2.249E+01                                 F               0         Blade 1 Z force, node 15, N
         46    1.521E+03                                 F               0         Blade 1 X force, node 16, N
         47    2.330E+02                                 F               0         Blade 1 Y force, node 16, N
         48    3.028E+01                                 F               0         Blade 1 Z force, node 16, N
         49    1.876E+03                                 F               0         Blade 1 X force, node 17, N
         50    2.908E+02                                 F               0         Blade 1 Y force, node 17, N
         51    4.246E+01                                 F               0         Blade 1 Z force, node 17, N
         52    1.434E+03                                 F               0         Blade 1 X force, node 18, N
         53    2.150E+02                                 F               0         Blade 1 Y force, node 18, N
         54    2.141E+01                                 F               0         Blade 1 Z force, node 18, N
         55    1.762E+03                                 F               0         Blade 1 X force, node 19, N
         56    2.521E+02                                 F               0         Blade 1 Y force, node 19, N
         57    8.295E+00                                 F               0         Blade 1 Z force, node 19, N
         58    1.503E+03                                 F               0         Blade 1 X force, node 20, N
         59    2.057E+02                                 F               0         Blade 1 Y force, node 20, N
         60   -7.088E+00                                 F               0         Blade 1 Z force, node 20, N
         61    2.222E+03                                 F               0         Blade 1 X force, node 21, N
         62    2.885E+02                                 F               0         Blade 1 Y force, node 21, N
         63   -3.368E+01                                 F               0         Blade 1 Z force, node 21, N
         64    1.963E+03                                 F               0         Blade 1 X force, node 22, N
         65    2.420E+02                                 F               0         Blade 1 Y force, node 22, N
         66   -4.917E+01                                 F               0         Blade 1 Z force, node 22, N
         67    2.018E+03                                 F               0         Blade 1 X force, node 23, N
         68    2.372E+02                                 F               0         Blade 1 Y force, node 23, N
         69   -6.790E+01                                 F               0         Blade 1 Z force, node 23, N
         70    2.109E+03                                 F               0         Blade 1 X force, node 24, N
         71    2.365E+02                                 F               0         Blade 1 Y force, node 24, N
         72   -8.806E+01                                 F               0         Blade 1 Z force, node 24, N
         73    2.163E+03                                 F               0         Blade 1 X force, node 25, N
         74    2.316E+02                                 F               0         Blade 1 Y force, node 25, N
         75   -1.068E+02                                 F               0         Blade 1 Z force, node 25, N
         76    2.229E+03                                 F               0         Blade 1 X force, node 26, N
         77    2.281E+02                                 F               0         Blade 1 Y force, node 26, N
         78   -1.260E+02                                 F               0         Blade 1 Z force, node 26, N
         79    2.673E+03                                 F               0         Blade 1 X force, node 27, N
         80    2.608E+02                                 F               0         Blade 1 Y force, node 27, N
         81   -1.702E+02                                 F               0         Blade 1 Z force, node 27, N
         82    1.983E+03                                 F               0         Blade 1 X force, node 28, N
         83    1.847E+02                                 F               0         Blade 1 Y force, node 28, N
         84   -1.394E+02                                 F               0         Blade 1 Z force, node 28, N
         85    2.427E+03                                 F               0         Blade 1 X force, node 29, N
         86    2.175E+02                                 F               0         Blade 1 Y force, node 29, N
         87   -1.836E+02                                 F               0         Blade 1 Z force, node 29, N
         88    2.066E+03                                 F               0         Blade 1 X force, node 30, N
         89    1.781E+02                                 F               0         Blade 1 Y force, node 30, N
         90   -1.667E+02                                 F               0         Blade 1 Z force, node 30, N
         91    2.986E+03                                 F               0         Blade 1 X force, node 31, N
         92    2.462E+02                                 F               0         Blade 1 Y force, node 31, N
         93   -2.580E+02                                 F               0         Blade 1 Z force, node 31, N
         94    2.625E+03                                 F               0         Blade 1 X force, node 32, N
         95    2.069E+02                                 F               0         Blade 1 Y force, node 32, N
         96   -2.411E+02                                 F               0         Blade 1 Z force, node 32, N
         97    2.690E+03                                 F               0         Blade 1 X force, node 33, N
         98    2.033E+02                                 F               0         Blade 1 Y force, node 33, N
         99   -2.602E+02                                 F               0         Blade 1 Z force, node 33, N
        100    2.757E+03                                 F               0         Blade 1 X force, node 34, N
        101    1.998E+02                                 F               0         Blade 1 Y force, node 34, N
        102   -2.794E+02                                 F               0         Blade 1 Z force, node 34, N
        103    2.823E+03                                 F               0         Blade 1 X force, node 35, N
        104    1.963E+02                                 F               0         Blade 1 Y force, node 35, N
        105   -2.985E+02                                 F               0         Blade 1 Z force, node 35, N
        106    2.888E+03                                 F               0         Blade 1 X force, node 36, N
        107    1.928E+02                                 F               0         Blade 1 Y force, node 36, N
        108   -3.176E+02                                 F               0         Blade 1 Z force, node 36, N
        109    3.456E+03                                 F               0         Blade 1 X force, node 37, N
        110    2.209E+02                                 F               0         Blade 1 Y force, node 37, N
        111   -3.948E+02                                 F               0         Blade 1 Z force, node 37, N
        112    2.518E+03                                 F               0         Blade 1 X force, node 38, N
        113    1.542E+02                                 F               0         Blade 1 Y force, node 38, N
        114   -2.977E+02                                 F               0         Blade 1 Z force, node 38, N
        115    3.087E+03                                 F               0         Blade 1 X force, node 39, N
        116    1.824E+02                                 F               0         Blade 1 Y force, node 39, N
        117   -3.750E+02                                 F               0         Blade 1 Z force, node 39, N
        118    2.633E+03                                 F               0         Blade 1 X force, node 40, N
        119    1.501E+02                                 F               0         Blade 1 Y force, node 40, N
        120   -3.281E+02                                 F               0         Blade 1 Z force, node 40, N
        121    3.741E+03                                 F               0         Blade 1 X force, node 41, N
        122    2.044E+02                                 F               0         Blade 1 Y force, node 41, N
        123   -4.794E+02                                 F               0         Blade 1 Z force, node 41, N
        124    3.286E+03                                 F               0         Blade 1 X force, node 42, N
        125    1.721E+02                                 F               0         Blade 1 Y force, node 42, N
        126   -4.323E+02                                 F               0         Blade 1 Z force, node 42, N
        127    3.351E+03                                 F               0         Blade 1 X force, node 43, N
        128    1.686E+02                                 F               0         Blade 1 Y force, node 43, N
        129   -4.514E+02                                 F               0         Blade 1 Z force, node 43, N
        130    3.435E+03                                 F               0         Blade 1 X force, node 44, N
        131    1.659E+02                                 F               0         Blade 1 Y force, node 44, N
        132   -4.729E+02                                 F               0         Blade 1 Z force, node 44, N
        133    3.465E+03                                 F               0         Blade 1 X force, node 45, N
        134    1.607E+02                                 F               0         Blade 1 Y force, node 45, N
        135   -4.870E+02                                 F               0         Blade 1 Z force, node 45, N
        136    3.549E+03                                 F               0         Blade 1 X force, node 46, N
        137    1.582E+02                                 F               0         Blade 1 Y force, node 46, N
        138   -5.085E+02                                 F               0         Blade 1 Z force, node 46, N
        139    4.249E+03                                 F               0         Blade 1 X force, node 47, N
        140    1.813E+02                                 F               0         Blade 1 Y force, node 47, N
        141   -6.209E+02                                 F               0         Blade 1 Z force, node 47, N
        142    3.046E+03                                 F               0         Blade 1 X force, node 48, N
        143    1.246E+02                                 F               0         Blade 1 Y force, node 48, N
        144   -4.533E+02                                 F               0         Blade 1 Z force, node 48, N
        145    3.746E+03                                 F               0         Blade 1 X force, node 49, N
        146    1.478E+02                                 F               0         Blade 1 Y force, node 49, N
        147   -5.656E+02                                 F               0         Blade 1 Z force, node 49, N
        148    3.205E+03                                 F               0         Blade 1 X force, node 50, N
        149    1.219E+02                                 F               0         Blade 1 Y force, node 50, N
        150   -4.908E+02                                 F               0         Blade 1 Z force, node 50, N
        151    4.484E+03                                 F               0         Blade 1 X force, node 51, N
        152    1.633E+02                                 F               0         Blade 1 Y force, node 51, N
        153   -6.974E+02                                 F               0         Blade 1 Z force, node 51, N
        154    3.944E+03                                 F               0         Blade 1 X force, node 52, N
        155    1.375E+02                                 F               0         Blade 1 Y force, node 52, N
        156   -6.227E+02                                 F               0         Blade 1 Z force, node 52, N
        157    4.011E+03                                 F               0         Blade 1 X force, node 53, N
        158    1.341E+02                                 F               0         Blade 1 Y force, node 53, N
        159   -6.418E+02                                 F               0         Blade 1 Z force, node 53, N
        160    4.123E+03                                 F               0         Blade 1 X force, node 54, N
        161    1.322E+02                                 F               0         Blade 1 Y force, node 54, N
        162   -6.682E+02                                 F               0         Blade 1 Z force, node 54, N
        163    4.099E+03                                 F               0         Blade 1 X force, node 55, N
        164    1.260E+02                                 F               0         Blade 1 Y force, node 55, N
        165   -6.727E+02                                 F               0         Blade 1 Z force, node 55, N
        166    4.211E+03                                 F               0         Blade 1 X force, node 56, N
        167    1.240E+02                                 F               0         Blade 1 Y force, node 56, N
        168   -6.990E+02                                 F               0         Blade 1 Z force, node 56, N
        169    5.051E+03                                 F               0         Blade 1 X force, node 57, N
        170    1.420E+02                                 F               0         Blade 1 Y force, node 57, N
        171   -8.487E+02                                 F               0         Blade 1 Z force, node 57, N
        172    3.570E+03                                 F               0         Blade 1 X force, node 58, N
        173    9.583E+01                                 F               0         Blade 1 Y force, node 58, N
        174   -6.066E+02                                 F               0         Blade 1 Z force, node 58, N
        175    4.410E+03                                 F               0         Blade 1 X force, node 59, N
        176    1.139E+02                                 F               0         Blade 1 Y force, node 59, N
        177   -7.563E+02                                 F               0         Blade 1 Z force, node 59, N
        178    3.792E+03                                 F               0         Blade 1 X force, node 60, N
        179    9.401E+01                                 F               0         Blade 1 Y force, node 60, N
        180   -6.560E+02                                 F               0         Blade 1 Z force, node 60, N
        181    5.229E+03                                 F               0         Blade 1 X force, node 61, N
        182    1.236E+02                                 F               0         Blade 1 Y force, node 61, N
        183   -9.137E+02                                 F               0         Blade 1 Z force, node 61, N
        184    4.608E+03                                 F               0         Blade 1 X force, node 62, N