
Linearized model: Predictions were generated on 19-Dec-2023 at 09:27:32 using OpenFAST, compiled as a 64-bit application using single precision at commit v3.5.1
 linked with  NWTC Subroutine Library; ElastoDyn; InflowWind; AeroDyn; ServoDyn; HydroDyn; MoorDyn (v2.0.0, 2023-09-18)

Description from the FAST input file: CCT-9 Campign 4 model. Input files to be run with OpenFAST 3.5.0. GitHub branch from Lu Wang (https://github.com/luwang00/openfast/tree/dev) compiled on March 7, 2023.

Simulation information:
   Simulation time:                  1007.2250 s
   Rotor Speed:                         1.0408 rad/s
   Azimuth:                             0.0827 rad
   Wind Speed:                         12.0000 m/s
   Number of continuous states:         0
   Number of discrete states:           0
   Number of constraint states:         0
   Number of inputs:                 1746
   Number of outputs:                   4
   Jacobians included in this file?    No

Order of inputs:
     Column   Operating Point                     Rotating Frame? Derivative Order Description
   ---------- ---------------                     --------------- ---------------- -----------
          1    1.511E+01                                 F               0         Tower X translation displacement, node 1, m
          2   -9.381E-01                                 F               0         Tower Y translation displacement, node 1, m
          3   -4.145E-01                                 F               0         Tower Z translation displacement, node 1, m
          4    1.702E+01                                 F               0         Tower X translation displacement, node 2, m
          5   -1.434E+00                                 F               0         Tower Y translation displacement, node 2, m
          6   -5.728E-01                                 F               0         Tower Z translation displacement, node 2, m
          7    1.896E+01                                 F               0         Tower X translation displacement, node 3, m
          8   -1.934E+00                                 F               0         Tower Y translation displacement, node 3, m
          9   -7.367E-01                                 F               0         Tower Z translation displacement, node 3, m
         10    2.093E+01                                 F               0         Tower X translation displacement, node 4, m
         11   -2.437E+00                                 F               0         Tower Y translation displacement, node 4, m
         12   -9.049E-01                                 F               0         Tower Z translation displacement, node 4, m
         13    2.292E+01                                 F               0         Tower X translation displacement, node 5, m
         14   -2.944E+00                                 F               0         Tower Y translation displacement, node 5, m
         15   -1.077E+00                                 F               0         Tower Z translation displacement, node 5, m
         16    2.493E+01                                 F               0         Tower X translation displacement, node 6, m
         17   -3.453E+00                                 F               0         Tower Y translation displacement, node 6, m
         18   -1.252E+00                                 F               0         Tower Z translation displacement, node 6, m
         19    2.695E+01                                 F               0         Tower X translation displacement, node 7, m
         20   -3.963E+00                                 F               0         Tower Y translation displacement, node 7, m
         21   -1.429E+00                                 F               0         Tower Z translation displacement, node 7, m
         22    2.899E+01                                 F               0         Tower X translation displacement, node 8, m
         23   -4.476E+00                                 F               0         Tower Y translation displacement, node 8, m
         24   -1.608E+00                                 F               0         Tower Z translation displacement, node 8, m
         25    3.103E+01                                 F               0         Tower X translation displacement, node 9, m
         26   -4.990E+00                                 F               0         Tower Y translation displacement, node 9, m
         27   -1.789E+00                                 F               0         Tower Z translation displacement, node 9, m
         28    3.308E+01                                 F               0         Tower X translation displacement, node 10, m
         29   -5.504E+00                                 F               0         Tower Y translation displacement, node 10, m
         30   -1.971E+00                                 F               0         Tower Z translation displacement, node 10, m
         31    3.513E+01                                 F               0         Tower X translation displacement, node 11, m
         32   -6.020E+00                                 F               0         Tower Y translation displacement, node 11, m
         33   -2.153E+00                                 F               0         Tower Z translation displacement, node 11, m
         34    9.881E-01,  1.501E-02, -1.529E-01         F               0         Tower X orientation angle, node 1, rad
         35   -8.711E-03,  9.991E-01,  4.181E-02         F               0         Tower Y orientation angle, node 1, rad
         36    1.533E-01, -3.999E-02,  9.874E-01         F               0         Tower Z orientation angle, node 1, rad
         37    9.877E-01,  1.512E-02, -1.554E-01         F               0         Tower X orientation angle, node 2, rad
         38   -8.654E-03,  9.991E-01,  4.218E-02         F               0         Tower Y orientation angle, node 2, rad
         39    1.559E-01, -4.031E-02,  9.869E-01         F               0         Tower Z orientation angle, node 2, rad
         40    9.874E-01,  1.521E-02, -1.577E-01         F               0         Tower X orientation angle, node 3, rad
         41   -8.602E-03,  9.991E-01,  4.250E-02         F               0         Tower Y orientation angle, node 3, rad
         42    1.582E-01, -4.061E-02,  9.866E-01         F               0         Tower Z orientation angle, node 3, rad
         43    9.870E-01,  1.529E-02, -1.597E-01         F               0         Tower X orientation angle, node 4, rad
         44   -8.556E-03,  9.990E-01,  4.278E-02         F               0         Tower Y orientation angle, node 4, rad
         45    1.602E-01, -4.086E-02,  9.862E-01         F               0         Tower Z orientation angle, node 4, rad
         46    9.868E-01,  1.536E-02, -1.613E-01         F               0         Tower X orientation angle, node 5, rad
         47   -8.517E-03,  9.990E-01,  4.303E-02         F               0         Tower Y orientation angle, node 5, rad
         48    1.618E-01, -4.108E-02,  9.860E-01         F               0         Tower Z orientation angle, node 5, rad
         49    9.866E-01,  1.542E-02, -1.626E-01         F               0         Tower X orientation angle, node 6, rad
         50   -8.483E-03,  9.990E-01,  4.323E-02         F               0         Tower Y orientation angle, node 6, rad
         51    1.632E-01, -4.127E-02,  9.857E-01         F               0         Tower Z orientation angle, node 6, rad
         52    9.864E-01,  1.546E-02, -1.637E-01         F               0         Tower X orientation angle, node 7, rad
         53   -8.456E-03,  9.990E-01,  4.339E-02         F               0         Tower Y orientation angle, node 7, rad
         54    1.642E-01, -4.142E-02,  9.856E-01         F               0         Tower Z orientation angle, node 7, rad
         55    9.863E-01,  1.549E-02, -1.644E-01         F               0         Tower X orientation angle, node 8, rad
         56   -8.435E-03,  9.990E-01,  4.352E-02         F               0         Tower Y orientation angle, node 8, rad
         57    1.649E-01, -4.154E-02,  9.854E-01         F               0         Tower Z orientation angle, node 8, rad
         58    9.862E-01,  1.551E-02, -1.650E-01         F               0         Tower X orientation angle, node 9, rad
         59   -8.420E-03,  9.990E-01,  4.361E-02         F               0         Tower Y orientation angle, node 9, rad
         60    1.655E-01, -4.162E-02,  9.853E-01         F               0         Tower Z orientation angle, node 9, rad
         61    9.861E-01,  1.553E-02, -1.653E-01         F               0         Tower X orientation angle, node 10, rad
         62   -8.410E-03,  9.990E-01,  4.367E-02         F               0         Tower Y orientation angle, node 10, rad
         63    1.658E-01, -4.168E-02,  9.853E-01         F               0         Tower Z orientation angle, node 10, rad
         64    9.861E-01,  1.554E-02, -1.655E-01         F               0         Tower X orientation angle, node 11, rad
         65   -8.404E-03,  9.990E-01,  4.371E-02         F               0         Tower Y orientation angle, node 11, rad
         66    1.660E-01, -4.171E-02,  9.852E-01         F               0         Tower Z orientation angle, node 11, rad
         67   -1.028E-03                                 F               0         Tower X translation velocity, node 1, m/s
         68   -1.771E-02                                 F               0         Tower Y translation velocity, node 1, m/s
         69    2.312E-03                                 F               0         Tower Z translation velocity, node 1, m/s
         70   -1.168E-03                                 F               0         Tower X translation velocity, node 2, m/s
         71   -3.012E-02                                 F               0         Tower Y translation velocity, node 2, m/s
         72    1.829E-03                                 F               0         Tower Z translation velocity, node 2, m/s
         73   -1.224E-03                                 F               0         Tower X translation velocity, node 3, m/s
         74   -4.274E-02                                 F               0         Tower Y translation velocity, node 3, m/s
         75    1.320E-03                                 F               0         Tower Z translation velocity, node 3, m/s
         76   -1.218E-03                                 F               0         Tower X translation velocity, node 4, m/s
         77   -5.554E-02                                 F               0         Tower Y translation velocity, node 4, m/s
         78    7.907E-04                                 F               0         Tower Z translation velocity, node 4, m/s
         79   -1.161E-03                                 F               0         Tower X translation velocity, node 5, m/s
         80   -6.849E-02                                 F               0         Tower Y translation velocity, node 5, m/s
         81    2.432E-04                                 F               0         Tower Z translation velocity, node 5, m/s
         82   -1.064E-03                                 F               0         Tower X translation velocity, node 6, m/s
         83   -8.157E-02                                 F               0         Tower Y translation velocity, node 6, m/s
         84   -3.192E-04                                 F               0         Tower Z translation velocity, node 6, m/s
         85   -9.385E-04                                 F               0         Tower X translation velocity, node 7, m/s
         86   -9.474E-02                                 F               0         Tower Y translation velocity, node 7, m/s
         87   -8.926E-04                                 F               0         Tower Z translation velocity, node 7, m/s
         88   -7.899E-04                                 F               0         Tower X translation velocity, node 8, m/s
         89   -1.080E-01                                 F               0         Tower Y translation velocity, node 8, m/s
         90   -1.476E-03                                 F               0         Tower Z translation velocity, node 8, m/s
         91   -6.257E-04                                 F               0         Tower X translation velocity, node 9, m/s
         92   -1.213E-01                                 F               0         Tower Y translation velocity, node 9, m/s
         93   -2.066E-03                                 F               0         Tower Z translation velocity, node 9, m/s
         94   -4.517E-04                                 F               0         Tower X translation velocity, node 10, m/s
         95   -1.347E-01                                 F               0         Tower Y translation velocity, node 10, m/s
         96   -2.660E-03                                 F               0         Tower Z translation velocity, node 10, m/s
         97   -2.728E-04                                 F               0         Tower X translation velocity, node 11, m/s
         98   -1.481E-01                                 F               0         Tower Y translation velocity, node 11, m/s
         99   -3.258E-03                                 F               0         Tower Z translation velocity, node 11, m/s
        100    3.658E+01                                 F               0         Hub X translation displacement, node 1, m
        101   -6.515E+00                                 F               0         Hub Y translation displacement, node 1, m
        102   -4.815E-01                                 F               0         Hub Z translation displacement, node 1, m
        103    9.633E-01,  1.981E-02, -2.676E-01         F               0         Hub X orientation angle, node 1, rad
        104    1.378E-02,  9.923E-01,  1.231E-01         F               0         Hub Y orientation angle, node 1, rad
        105    2.679E-01, -1.223E-01,  9.556E-01         F               0         Hub Z orientation angle, node 1, rad
        106    1.004E+00                                 F               0         Hub X rotation velocity, node 1, rad/s
        107    2.065E-02                                 F               0         Hub Y rotation velocity, node 1, rad/s
        108   -2.788E-01                                 F               0         Hub Z rotation velocity, node 1, rad/s
        109    9.625E-01, -9.637E-03, -2.711E-01         F               0         Blade root 1 X orientation angle, node 1, rad
        110    4.235E-02,  9.925E-01,  1.151E-01         F               0         Blade root 1 Y orientation angle, node 1, rad
        111    2.679E-01, -1.223E-01,  9.556E-01         F               0         Blade root 1 Z orientation angle, node 1, rad
        112    9.562E-01,  3.766E-02, -2.902E-01         F               0         Blade root 2 X orientation angle, node 1, rad
        113    2.536E-01, -6.012E-01,  7.578E-01         F               0         Blade root 2 Y orientation angle, node 1, rad
        114   -1.459E-01, -7.982E-01, -5.844E-01         F               0         Blade root 2 Z orientation angle, node 1, rad
        115    9.700E-01,  3.138E-02, -2.411E-01         F               0         Blade root 3 X orientation angle, node 1, rad
        116   -2.102E-01, -3.895E-01, -8.967E-01         F               0         Blade root 3 Y orientation angle, node 1, rad
        117   -1.220E-01,  9.205E-01, -3.712E-01         F               0         Blade root 3 Z orientation angle, node 1, rad
        118    3.748E+01                                 F               0         Blade 1 X translation displacement, node 1, m
        119   -7.192E+00                                 F               0         Blade 1 Y translation displacement, node 1, m
        120   -6.969E-01                                 F               0         Blade 1 Z translation displacement, node 1, m
        121    3.770E+01                                 F               0         Blade 1 X translation displacement, node 2, m
        122   -7.355E+00                                 F               0         Blade 1 Y translation displacement, node 2, m
        123   -7.488E-01                                 F               0         Blade 1 Z translation displacement, node 2, m
        124    4.067E+01                                 F               0         Blade 1 X translation displacement, node 3, m
        125   -9.574E+00                                 F               0         Blade 1 Y translation displacement, node 3, m
        126   -1.454E+00                                 F               0         Blade 1 Z translation displacement, node 3, m
        127    4.130E+01                                 F               0         Blade 1 X translation displacement, node 4, m
        128   -1.005E+01                                 F               0         Blade 1 Y translation displacement, node 4, m
        129   -1.605E+00                                 F               0         Blade 1 Z translation displacement, node 4, m
        130    4.193E+01                                 F               0         Blade 1 X translation displacement, node 5, m
        131   -1.052E+01                                 F               0         Blade 1 Y translation displacement, node 5, m
        132   -1.755E+00                                 F               0         Blade 1 Z translation displacement, node 5, m
        133    4.256E+01                                 F               0         Blade 1 X translation displacement, node 6, m
        134   -1.099E+01                                 F               0         Blade 1 Y translation displacement, node 6, m
        135   -1.905E+00                                 F               0         Blade 1 Z translation displacement, node 6, m
        136    4.320E+01                                 F               0         Blade 1 X translation displacement, node 7, m
        137   -1.147E+01                                 F               0         Blade 1 Y translation displacement, node 7, m
        138   -2.056E+00                                 F               0         Blade 1 Z translation displacement, node 7, m
        139    4.383E+01                                 F               0         Blade 1 X translation displacement, node 8, m
        140   -1.194E+01                                 F               0         Blade 1 Y translation displacement, node 8, m
        141   -2.206E+00                                 F               0         Blade 1 Z translation displacement, node 8, m
        142    4.446E+01                                 F               0         Blade 1 X translation displacement, node 9, m
        143   -1.241E+01                                 F               0         Blade 1 Y translation displacement, node 9, m
        144   -2.357E+00                                 F               0         Blade 1 Z translation displacement, node 9, m
        145    4.509E+01                                 F               0         Blade 1 X translation displacement, node 10, m
        146   -1.288E+01                                 F               0         Blade 1 Y translation displacement, node 10, m
        147   -2.507E+00                                 F               0         Blade 1 Z translation displacement, node 10, m
        148    4.572E+01                                 F               0         Blade 1 X translation displacement, node 11, m
        149   -1.336E+01                                 F               0         Blade 1 Y translation displacement, node 11, m
        150   -2.657E+00                                 F               0         Blade 1 Z translation displacement, node 11, m
        151    4.636E+01                                 F               0         Blade 1 X translation displacement, node 12, m
        152   -1.383E+01                                 F               0         Blade 1 Y translation displacement, node 12, m
        153   -2.808E+00                                 F               0         Blade 1 Z translation displacement, node 12, m
        154    4.699E+01                                 F               0         Blade 1 X translation displacement, node 13, m
        155   -1.430E+01                                 F               0         Blade 1 Y translation displacement, node 13, m
        156   -2.958E+00                                 F               0         Blade 1 Z translation displacement, node 13, m
        157    4.762E+01                                 F               0         Blade 1 X translation displacement, node 14, m
        158   -1.478E+01                                 F               0         Blade 1 Y translation displacement, node 14, m
        159   -3.108E+00                                 F               0         Blade 1 Z translation displacement, node 14, m
        160    4.825E+01                                 F               0         Blade 1 X translation displacement, node 15, m
        161   -1.525E+01                                 F               0         Blade 1 Y translation displacement, node 15, m
        162   -3.259E+00                                 F               0         Blade 1 Z translation displacement, node 15, m
        163    4.888E+01                                 F               0         Blade 1 X translation displacement, node 16, m
        164   -1.572E+01                                 F               0         Blade 1 Y translation displacement, node 16, m
        165   -3.409E+00                                 F               0         Blade 1 Z translation displacement, node 16, m
        166    4.952E+01                                 F               0         Blade 1 X translation displacement, node 17, m
        167   -1.619E+01                                 F               0         Blade 1 Y translation displacement, node 17, m
        168   -3.559E+00                                 F               0         Blade 1 Z translation displacement, node 17, m
        169    5.015E+01                                 F               0         Blade 1 X translation displacement, node 18, m
        170   -1.667E+01                                 F               0         Blade 1 Y translation displacement, node 18, m
        171   -3.710E+00                                 F               0         Blade 1 Z translation displacement, node 18, m
        172    5.078E+01                                 F               0         Blade 1 X translation displacement, node 19, m
        173   -1.714E+01                                 F               0         Blade 1 Y translation displacement, node 19, m
        174   -3.860E+00                                 F               0         Blade 1 Z translation displacement, node 19, m
        175    5.141E+01                                 F               0         Blade 1 X translation displacement, node 20, m
        176   -1.761E+01                                 F               0         Blade 1 Y translation displacement, node 20, m
        177   -4.010E+00                                 F               0         Blade 1 Z translation displacement, node 20, m
        178    5.204E+01                                 F               0         Blade 1 X translation displacement, node 21, m
        179   -1.809E+01                                 F               0         Blade 1 Y translation displacement, node 21, m
        180   -4.161E+00                                 F               0         Blade 1 Z translation displacement, node 21, m
        181    5.268E+01                                 F               0         Blade 1 X translation displacement, node 22, m
        182   -1.856E+01                                 F               0         Blade 1 Y translation displacement, node 22, m
        183   -4.311E+00                                 F               0         Blade 1 Z translation displacement, node 22, m
        184    5.331E+01                                 F               0         Blade 1 X translation displacement, node 23, m
        185   -1.903E+01                                 F               0         Blade 1 Y translation displacement, node 23, m
        186   -4.461E+00                                 F               0         Blade 1 Z translation displacement, node 23, m
        187    5.394E+01                                 F               0         Blade 1 X translation displacement, node 24, m
        188   -1.950E+01                                 F               0         Blade 1 Y translation displacement, node 24, m
        189   -4.612E+00                                 F               0         Blade 1 Z translation displacement, node 24, m
        190    5.457E+01                                 F               0         Blade 1 X translation displacement, node 25, m
        191   -1.998E+01                                 F               0         Blade 1 Y translation displacement, node 25, m
        192   -4.762E+00                                 F               0         Blade 1 Z translation displacement, node 25, m
        193    5.520E+01                                 F               0         Blade 1 X translation displacement, node 26, m
        194   -2.045E+01                                 F               0         Blade 1 Y translation displacement, node 26, m
        195   -4.912E+00                                 F               0         Blade 1 Z translation displacement, node 26, m
        196    5.584E+01                                 F               0         Blade 1 X translation displacement, node 27, m
        197   -2.092E+01                                 F               0         Blade 1 Y translation displacement, node 27, m
        198   -5.063E+00                                 F               0         Blade 1 Z translation displacement, node 27, m
        199    5.637E+01                                 F               0         Blade 1 X translation displacement, node 28, m
        200   -2.132E+01                                 F               0         Blade 1 Y translation displacement, node 28, m
        201   -5.190E+00                                 F               0         Blade 1 Z translation displacement, node 28, m
        202    8.373E-01, -4.611E-01, -2.937E-01         F               0         Blade 1 X orientation angle, node 1, rad
        203    4.766E-01,  8.789E-01, -2.120E-02         F               0         Blade 1 Y orientation angle, node 1, rad
        204    2.679E-01, -1.223E-01,  9.556E-01         F               0         Blade 1 Z orientation angle, node 1, rad
        205    8.373E-01, -4.611E-01, -2.937E-01         F               0         Blade 1 X orientation angle, node 2, rad
        206    4.766E-01,  8.789E-01, -2.120E-02         F               0         Blade 1 Y orientation angle, node 2, rad
        207    2.679E-01, -1.223E-01,  9.556E-01         F               0         Blade 1 Z orientation angle, node 2, rad
        208    9.264E-01, -2.397E-01, -2.904E-01         F               0         Blade 1 X orientation angle, node 3, rad
        209    2.646E-01,  9.631E-01,  4.903E-02         F               0         Blade 1 Y orientation angle, node 3, rad
        210    2.679E-01, -1.223E-01,  9.556E-01         F               0         Blade 1 Z orientation angle, node 3, rad
        211    9.367E-01, -1.988E-01, -2.881E-01         F               0         Blade 1 X orientation angle, node 4, rad
        212    2.252E-01,  9.724E-01,  6.125E-02         F               0         Blade 1 Y orientation angle, node 4, rad
        213    2.679E-01, -1.223E-01,  9.556E-01         F               0         Blade 1 Z orientation angle, node 4, rad
        214    9.437E-01, -1.665E-01, -2.859E-01         F               0         Blade 1 X orientation angle, node 5, rad
        215    1.940E-01,  9.784E-01,  7.076E-02         F               0         Blade 1 Y orientation angle, node 5, rad
        216    2.679E-01, -1.223E-01,  9.556E-01         F               0         Blade 1 Z orientation angle, node 5, rad
        217    9.485E-01, -1.405E-01, -2.839E-01         F               0         Blade 1 X orientation angle, node 6, rad
        218    1.689E-01,  9.825E-01,  7.832E-02         F               0         Blade 1 Y orientation angle, node 6, rad
        219    2.679E-01, -1.223E-01,  9.556E-01         F               0         Blade 1 Z orientation angle, node 6, rad
        220    9.520E-01, -1.190E-01, -2.821E-01         F               0         Blade 1 X orientation angle, node 7, rad
        221    1.482E-01,  9.853E-01,  8.450E-02         F               0         Blade 1 Y orientation angle, node 7, rad
        222    2.679E-01, -1.223E-01,  9.556E-01         F               0         Blade 1 Z orientation angle, node 7, rad
        223    9.545E-01, -1.011E-01, -2.805E-01         F               0         Blade 1 X orientation angle, node 8, rad
        224    1.309E-01,  9.873E-01,  8.960E-02         F               0         Blade 1 Y orientation angle, node 8, rad
        225    2.679E-01, -1.223E-01,  9.556E-01         F               0         Blade 1 Z orientation angle, node 8, rad
        226    9.564E-01, -8.592E-02, -2.791E-01         F               0         Blade 1 X orientation angle, node 9, rad
        227    1.162E-01,  9.888E-01,  9.390E-02         F               0         Blade 1 Y orientation angle, node 9, rad