
Linearized model: Predictions were generated on 19-Dec-2023 at 09:27:32 using OpenFAST, compiled as a 64-bit application using single precision at commit v3.5.1
 linked with  NWTC Subroutine Library; ElastoDyn; InflowWind; AeroDyn; ServoDyn; HydroDyn; MoorDyn (v2.0.0, 2023-09-18)

Description from the FAST input file: CCT-9 Campign 4 model. Input files to be run with OpenFAST 3.5.0. GitHub branch from Lu Wang (https://github.com/luwang00/openfast/tree/dev) compiled on March 7, 2023.

Simulation information:
   Simulation time:                  1004.7250 s
   Rotor Speed:                         1.0411 rad/s
   Azimuth:                             3.7635 rad
   Wind Speed:                         12.0000 m/s
   Number of continuous states:         0
   Number of discrete states:           0
   Number of constraint states:         0
   Number of inputs:                   54
   Number of outputs:                   0
   Jacobians included in this file?    No

Order of inputs:
     Column   Operating Point                     Rotating Frame? Derivative Order Description
   ---------- ---------------                     --------------- ---------------- -----------
          1    1.024E+01                                 F               0         CoupledKinematics X translation displacement, node 1, m
          2    8.430E-01                                 F               0         CoupledKinematics Y translation displacement, node 1, m
          3   -6.604E+00                                 F               0         CoupledKinematics Z translation displacement, node 1, m
          4    9.258E+00                                 F               0         CoupledKinematics X translation displacement, node 2, m
          5    7.467E-01                                 F               0         CoupledKinematics Y translation displacement, node 2, m
          6   -2.424E+00                                 F               0         CoupledKinematics Z translation displacement, node 2, m
          7    1.081E+01                                 F               0         CoupledKinematics X translation displacement, node 3, m
          8   -5.912E-01                                 F               0         CoupledKinematics Y translation displacement, node 3, m
          9    9.064E+00                                 F               0         CoupledKinematics Z translation displacement, node 3, m
         10    9.881E-01,  1.560E-02, -1.528E-01         F               0         CoupledKinematics X orientation angle, node 1, rad
         11   -9.657E-03,  9.992E-01,  3.955E-02         F               0         CoupledKinematics Y orientation angle, node 1, rad
         12    1.533E-01, -3.760E-02,  9.875E-01         F               0         CoupledKinematics Z orientation angle, node 1, rad
         13    9.881E-01,  1.560E-02, -1.528E-01         F               0         CoupledKinematics X orientation angle, node 2, rad
         14   -9.657E-03,  9.992E-01,  3.955E-02         F               0         CoupledKinematics Y orientation angle, node 2, rad
         15    1.533E-01, -3.760E-02,  9.875E-01         F               0         CoupledKinematics Z orientation angle, node 2, rad
         16    9.881E-01,  1.560E-02, -1.528E-01         F               0         CoupledKinematics X orientation angle, node 3, rad
         17   -9.657E-03,  9.992E-01,  3.955E-02         F               0         CoupledKinematics Y orientation angle, node 3, rad
         18    1.533E-01, -3.760E-02,  9.875E-01         F               0         CoupledKinematics Z orientation angle, node 3, rad
         19   -1.680E-02                                 F               0         CoupledKinematics X translation velocity, node 1, m/s
         20    8.704E-03                                 F               0         CoupledKinematics Y translation velocity, node 1, m/s
         21   -3.869E-02                                 F               0         CoupledKinematics Z translation velocity, node 1, m/s
         22    1.543E-02                                 F               0         CoupledKinematics X translation velocity, node 2, m/s
         23    5.664E-03                                 F               0         CoupledKinematics Y translation velocity, node 2, m/s
         24    4.915E-02                                 F               0         CoupledKinematics Z translation velocity, node 2, m/s
         25   -6.039E-04                                 F               0         CoupledKinematics X translation velocity, node 3, m/s
         26    2.296E-02                                 F               0         CoupledKinematics Y translation velocity, node 3, m/s
         27    7.353E-03                                 F               0         CoupledKinematics Z translation velocity, node 3, m/s
         28    8.530E-04                                 F               0         CoupledKinematics X rotation velocity, node 1, rad/s
         29    3.762E-05                                 F               0         CoupledKinematics Y rotation velocity, node 1, rad/s
         30   -3.117E-04                                 F               0         CoupledKinematics Z rotation velocity, node 1, rad/s
         31    8.530E-04                                 F               0         CoupledKinematics X rotation velocity, node 2, rad/s
         32    3.762E-05                                 F               0         CoupledKinematics Y rotation velocity, node 2, rad/s
         33   -3.117E-04                                 F               0         CoupledKinematics Z rotation velocity, node 2, rad/s
         34    8.530E-04                                 F               0         CoupledKinematics X rotation velocity, node 3, rad/s
         35    3.762E-05                                 F               0         CoupledKinematics Y rotation velocity, node 3, rad/s
         36   -3.117E-04                                 F               0         CoupledKinematics Z rotation velocity, node 3, rad/s
         37   -4.508E-04                                 F               0         CoupledKinematics X translation acceleration, node 1, m/s^2
         38    2.270E-03                                 F               0         CoupledKinematics Y translation acceleration, node 1, m/s^2
         39   -6.461E-03                                 F               0         CoupledKinematics Z translation acceleration, node 1, m/s^2
         40    5.741E-04                                 F               0         CoupledKinematics X translation acceleration, node 2, m/s^2
         41    1.619E-03                                 F               0         CoupledKinematics Y translation acceleration, node 2, m/s^2
         42    7.868E-03                                 F               0         CoupledKinematics Z translation acceleration, node 2, m/s^2
         43   -4.446E-04                                 F               0         CoupledKinematics X translation acceleration, node 3, m/s^2
         44    1.046E-03                                 F               0         CoupledKinematics Y translation acceleration, node 3, m/s^2
         45   -2.680E-03                                 F               0         CoupledKinematics Z translation acceleration, node 3, m/s^2
         46    1.399E-04                                 F               0         CoupledKinematics X rotation acceleration, node 1, rad/s^2
         47   -3.648E-05                                 F               0         CoupledKinematics Y rotation acceleration, node 1, rad/s^2
         48   -1.142E-05                                 F               0         CoupledKinematics Z rotation acceleration, node 1, rad/s^2
         49    1.399E-04                                 F               0         CoupledKinematics X rotation acceleration, node 2, rad/s^2
         50   -3.648E-05                                 F               0         CoupledKinematics Y rotation acceleration, node 2, rad/s^2
         51   -1.142E-05                                 F               0         CoupledKinematics Z rotation acceleration, node 2, rad/s^2
         52    1.399E-04                                 F               0         CoupledKinematics X rotation acceleration, node 3, rad/s^2
         53   -3.648E-05                                 F               0         CoupledKinematics Y rotation acceleration, node 3, rad/s^2
         54   -1.142E-05                                 F               0         CoupledKinematics Z rotation acceleration, node 3, rad/s^2


Linearized state matrices:

