
Linearized model: Predictions were generated on 19-Dec-2023 at 09:27:32 using OpenFAST, compiled as a 64-bit application using single precision at commit v3.5.1
 linked with  NWTC Subroutine Library; ElastoDyn; InflowWind; AeroDyn; ServoDyn; HydroDyn; MoorDyn (v2.0.0, 2023-09-18)

Description from the FAST input file: CCT-9 Campign 4 model. Input files to be run with OpenFAST 3.5.0. GitHub branch from Lu Wang (https://github.com/luwang00/openfast/tree/dev) compiled on March 7, 2023.

Simulation information:
   Simulation time:                  1003.2500 s
   Rotor Speed:                         1.0412 rad/s
   Azimuth:                             2.2279 rad
   Wind Speed:                         12.0000 m/s
   Number of continuous states:         0
   Number of discrete states:           0
   Number of constraint states:         0
   Number of inputs:                 1746
   Number of outputs:                   4
   Jacobians included in this file?    No

Order of inputs:
     Column   Operating Point                     Rotating Frame? Derivative Order Description
   ---------- ---------------                     --------------- ---------------- -----------
          1    1.511E+01                                 F               0         Tower X translation displacement, node 1, m
          2   -8.743E-01                                 F               0         Tower Y translation displacement, node 1, m
          3   -4.307E-01                                 F               0         Tower Z translation displacement, node 1, m
          4    1.702E+01                                 F               0         Tower X translation displacement, node 2, m
          5   -1.327E+00                                 F               0         Tower Y translation displacement, node 2, m
          6   -5.871E-01                                 F               0         Tower Z translation displacement, node 2, m
          7    1.896E+01                                 F               0         Tower X translation displacement, node 3, m
          8   -1.783E+00                                 F               0         Tower Y translation displacement, node 3, m
          9   -7.491E-01                                 F               0         Tower Z translation displacement, node 3, m
         10    2.093E+01                                 F               0         Tower X translation displacement, node 4, m
         11   -2.242E+00                                 F               0         Tower Y translation displacement, node 4, m
         12   -9.154E-01                                 F               0         Tower Z translation displacement, node 4, m
         13    2.292E+01                                 F               0         Tower X translation displacement, node 5, m
         14   -2.704E+00                                 F               0         Tower Y translation displacement, node 5, m
         15   -1.085E+00                                 F               0         Tower Z translation displacement, node 5, m
         16    2.492E+01                                 F               0         Tower X translation displacement, node 6, m
         17   -3.168E+00                                 F               0         Tower Y translation displacement, node 6, m
         18   -1.258E+00                                 F               0         Tower Z translation displacement, node 6, m
         19    2.695E+01                                 F               0         Tower X translation displacement, node 7, m
         20   -3.634E+00                                 F               0         Tower Y translation displacement, node 7, m
         21   -1.434E+00                                 F               0         Tower Z translation displacement, node 7, m
         22    2.898E+01                                 F               0         Tower X translation displacement, node 8, m
         23   -4.101E+00                                 F               0         Tower Y translation displacement, node 8, m
         24   -1.611E+00                                 F               0         Tower Z translation displacement, node 8, m
         25    3.102E+01                                 F               0         Tower X translation displacement, node 9, m
         26   -4.569E+00                                 F               0         Tower Y translation displacement, node 9, m
         27   -1.789E+00                                 F               0         Tower Z translation displacement, node 9, m
         28    3.306E+01                                 F               0         Tower X translation displacement, node 10, m
         29   -5.038E+00                                 F               0         Tower Y translation displacement, node 10, m
         30   -1.969E+00                                 F               0         Tower Z translation displacement, node 10, m
         31    3.511E+01                                 F               0         Tower X translation displacement, node 11, m
         32   -5.507E+00                                 F               0         Tower Y translation displacement, node 11, m
         33   -2.149E+00                                 F               0         Tower Z translation displacement, node 11, m
         34    9.881E-01,  1.595E-02, -1.528E-01         F               0         Tower X orientation angle, node 1, rad
         35   -1.017E-02,  9.992E-01,  3.852E-02         F               0         Tower Y orientation angle, node 1, rad
         36    1.533E-01, -3.651E-02,  9.875E-01         F               0         Tower Z orientation angle, node 1, rad
         37    9.877E-01,  1.605E-02, -1.553E-01         F               0         Tower X orientation angle, node 2, rad
         38   -1.012E-02,  9.992E-01,  3.884E-02         F               0         Tower Y orientation angle, node 2, rad
         39    1.558E-01, -3.679E-02,  9.871E-01         F               0         Tower Z orientation angle, node 2, rad
         40    9.874E-01,  1.613E-02, -1.576E-01         F               0         Tower X orientation angle, node 3, rad
         41   -1.008E-02,  9.992E-01,  3.913E-02         F               0         Tower Y orientation angle, node 3, rad
         42    1.581E-01, -3.705E-02,  9.867E-01         F               0         Tower Z orientation angle, node 3, rad
         43    9.871E-01,  1.620E-02, -1.596E-01         F               0         Tower X orientation angle, node 4, rad
         44   -1.004E-02,  9.992E-01,  3.938E-02         F               0         Tower Y orientation angle, node 4, rad
         45    1.601E-01, -3.727E-02,  9.864E-01         F               0         Tower Z orientation angle, node 4, rad
         46    9.868E-01,  1.627E-02, -1.612E-01         F               0         Tower X orientation angle, node 5, rad
         47   -1.000E-02,  9.992E-01,  3.959E-02         F               0         Tower Y orientation angle, node 5, rad
         48    1.617E-01, -3.746E-02,  9.861E-01         F               0         Tower Z orientation angle, node 5, rad
         49    9.866E-01,  1.632E-02, -1.625E-01         F               0         Tower X orientation angle, node 6, rad
         50   -9.972E-03,  9.992E-01,  3.977E-02         F               0         Tower Y orientation angle, node 6, rad
         51    1.630E-01, -3.762E-02,  9.859E-01         F               0         Tower Z orientation angle, node 6, rad
         52    9.864E-01,  1.636E-02, -1.636E-01         F               0         Tower X orientation angle, node 7, rad
         53   -9.949E-03,  9.992E-01,  3.991E-02         F               0         Tower Y orientation angle, node 7, rad
         54    1.641E-01, -3.774E-02,  9.857E-01         F               0         Tower Z orientation angle, node 7, rad
         55    9.863E-01,  1.638E-02, -1.643E-01         F               0         Tower X orientation angle, node 8, rad
         56   -9.930E-03,  9.991E-01,  4.003E-02         F               0         Tower Y orientation angle, node 8, rad
         57    1.648E-01, -3.785E-02,  9.856E-01         F               0         Tower Z orientation angle, node 8, rad
         58    9.862E-01,  1.641E-02, -1.649E-01         F               0         Tower X orientation angle, node 9, rad
         59   -9.917E-03,  9.991E-01,  4.011E-02         F               0         Tower Y orientation angle, node 9, rad
         60    1.654E-01, -3.792E-02,  9.855E-01         F               0         Tower Z orientation angle, node 9, rad
         61    9.861E-01,  1.642E-02, -1.652E-01         F               0         Tower X orientation angle, node 10, rad
         62   -9.908E-03,  9.991E-01,  4.016E-02         F               0         Tower Y orientation angle, node 10, rad
         63    1.657E-01, -3.797E-02,  9.854E-01         F               0         Tower Z orientation angle, node 10, rad
         64    9.861E-01,  1.643E-02, -1.654E-01         F               0         Tower X orientation angle, node 11, rad
         65   -9.903E-03,  9.991E-01,  4.019E-02         F               0         Tower Y orientation angle, node 11, rad
         66    1.659E-01, -3.799E-02,  9.854E-01         F               0         Tower Z orientation angle, node 11, rad
         67    4.754E-04                                 F               0         Tower X translation velocity, node 1, m/s
         68   -1.077E-02                                 F               0         Tower Y translation velocity, node 1, m/s
         69    4.691E-03                                 F               0         Tower Z translation velocity, node 1, m/s
         70    9.344E-04                                 F               0         Tower X translation velocity, node 2, m/s
         71   -1.848E-02                                 F               0         Tower Y translation velocity, node 2, m/s
         72    4.333E-03                                 F               0         Tower Z translation velocity, node 2, m/s
         73    1.462E-03                                 F               0         Tower X translation velocity, node 3, m/s
         74   -2.634E-02                                 F               0         Tower Y translation velocity, node 3, m/s
         75    3.955E-03                                 F               0         Tower Z translation velocity, node 3, m/s
         76    2.035E-03                                 F               0         Tower X translation velocity, node 4, m/s
         77   -3.432E-02                                 F               0         Tower Y translation velocity, node 4, m/s
         78    3.562E-03                                 F               0         Tower Z translation velocity, node 4, m/s
         79    2.639E-03                                 F               0         Tower X translation velocity, node 5, m/s
         80   -4.239E-02                                 F               0         Tower Y translation velocity, node 5, m/s
         81    3.157E-03                                 F               0         Tower Z translation velocity, node 5, m/s
         82    3.261E-03                                 F               0         Tower X translation velocity, node 6, m/s
         83   -5.055E-02                                 F               0         Tower Y translation velocity, node 6, m/s
         84    2.744E-03                                 F               0         Tower Z translation velocity, node 6, m/s
         85    3.892E-03                                 F               0         Tower X translation velocity, node 7, m/s
         86   -5.878E-02                                 F               0         Tower Y translation velocity, node 7, m/s
         87    2.325E-03                                 F               0         Tower Z translation velocity, node 7, m/s
         88    4.524E-03                                 F               0         Tower X translation velocity, node 8, m/s
         89   -6.706E-02                                 F               0         Tower Y translation velocity, node 8, m/s
         90    1.902E-03                                 F               0         Tower Z translation velocity, node 8, m/s
         91    5.152E-03                                 F               0         Tower X translation velocity, node 9, m/s
         92   -7.539E-02                                 F               0         Tower Y translation velocity, node 9, m/s
         93    1.476E-03                                 F               0         Tower Z translation velocity, node 9, m/s
         94    5.775E-03                                 F               0         Tower X translation velocity, node 10, m/s
         95   -8.376E-02                                 F               0         Tower Y translation velocity, node 10, m/s
         96    1.049E-03                                 F               0         Tower Z translation velocity, node 10, m/s
         97    6.392E-03                                 F               0         Tower X translation velocity, node 11, m/s
         98   -9.214E-02                                 F               0         Tower Y translation velocity, node 11, m/s
         99    6.225E-04                                 F               0         Tower Z translation velocity, node 11, m/s
        100    3.657E+01                                 F               0         Hub X translation displacement, node 1, m
        101   -5.983E+00                                 F               0         Hub Y translation displacement, node 1, m
        102   -4.776E-01                                 F               0         Hub Z translation displacement, node 1, m
        103    9.634E-01,  2.031E-02, -2.675E-01         F               0         Hub X orientation angle, node 1, rad
        104    2.183E-01, -6.388E-01,  7.377E-01         F               0         Hub Y orientation angle, node 1, rad
        105   -1.559E-01, -7.691E-01, -6.198E-01         F               0         Hub Z orientation angle, node 1, rad
        106    1.004E+00                                 F               0         Hub X rotation velocity, node 1, rad/s
        107    2.120E-02                                 F               0         Hub Y rotation velocity, node 1, rad/s
        108   -2.788E-01                                 F               0         Hub Z rotation velocity, node 1, rad/s
        109    9.565E-01,  3.925E-02, -2.892E-01         F               0         Blade root 1 X orientation angle, node 1, rad
        110    2.468E-01, -6.379E-01,  7.295E-01         F               0         Blade root 1 Y orientation angle, node 1, rad
        111   -1.559E-01, -7.691E-01, -6.198E-01         F               0         Blade root 1 Z orientation angle, node 1, rad
        112    9.702E-01,  3.058E-02, -2.405E-01         F               0         Blade root 2 X orientation angle, node 1, rad
        113   -2.155E-01, -3.459E-01, -9.132E-01         F               0         Blade root 2 Y orientation angle, node 1, rad
        114   -1.111E-01,  9.378E-01, -3.290E-01         F               0         Blade root 2 Z orientation angle, node 1, rad
        115    9.622E-01, -8.937E-03, -2.723E-01         F               0         Blade root 3 X orientation angle, node 1, rad
        116    5.442E-02,  9.856E-01,  1.599E-01         F               0         Blade root 3 Y orientation angle, node 1, rad
        117    2.670E-01, -1.687E-01,  9.488E-01         F               0         Blade root 3 Z orientation angle, node 1, rad
        118    3.512E+01                                 F               0         Blade 1 X translation displacement, node 1, m
        119   -1.024E+01                                 F               0         Blade 1 Y translation displacement, node 1, m
        120   -9.421E+00                                 F               0         Blade 1 Z translation displacement, node 1, m
        121    3.477E+01                                 F               0         Blade 1 X translation displacement, node 2, m
        122   -1.127E+01                                 F               0         Blade 1 Y translation displacement, node 2, m
        123   -1.158E+01                                 F               0         Blade 1 Z translation displacement, node 2, m
        124    3.005E+01                                 F               0         Blade 1 X translation displacement, node 3, m
        125   -2.523E+01                                 F               0         Blade 1 Y translation displacement, node 3, m
        126   -4.088E+01                                 F               0         Blade 1 Z translation displacement, node 3, m
        127    2.904E+01                                 F               0         Blade 1 X translation displacement, node 4, m
        128   -2.821E+01                                 F               0         Blade 1 Y translation displacement, node 4, m
        129   -4.712E+01                                 F               0         Blade 1 Z translation displacement, node 4, m
        130    2.803E+01                                 F               0         Blade 1 X translation displacement, node 5, m
        131   -3.118E+01                                 F               0         Blade 1 Y translation displacement, node 5, m
        132   -5.337E+01                                 F               0         Blade 1 Z translation displacement, node 5, m
        133    2.703E+01                                 F               0         Blade 1 X translation displacement, node 6, m
        134   -3.415E+01                                 F               0         Blade 1 Y translation displacement, node 6, m
        135   -5.961E+01                                 F               0         Blade 1 Z translation displacement, node 6, m
        136    2.602E+01                                 F               0         Blade 1 X translation displacement, node 7, m
        137   -3.713E+01                                 F               0         Blade 1 Y translation displacement, node 7, m
        138   -6.586E+01                                 F               0         Blade 1 Z translation displacement, node 7, m
        139    2.501E+01                                 F               0         Blade 1 X translation displacement, node 8, m
        140   -4.010E+01                                 F               0         Blade 1 Y translation displacement, node 8, m
        141   -7.210E+01                                 F               0         Blade 1 Z translation displacement, node 8, m
        142    2.400E+01                                 F               0         Blade 1 X translation displacement, node 9, m
        143   -4.308E+01                                 F               0         Blade 1 Y translation displacement, node 9, m
        144   -7.834E+01                                 F               0         Blade 1 Z translation displacement, node 9, m
        145    2.300E+01                                 F               0         Blade 1 X translation displacement, node 10, m
        146   -4.605E+01                                 F               0         Blade 1 Y translation displacement, node 10, m
        147   -8.459E+01                                 F               0         Blade 1 Z translation displacement, node 10, m
        148    2.199E+01                                 F               0         Blade 1 X translation displacement, node 11, m
        149   -4.903E+01                                 F               0         Blade 1 Y translation displacement, node 11, m
        150   -9.083E+01                                 F               0         Blade 1 Z translation displacement, node 11, m
        151    2.098E+01                                 F               0         Blade 1 X translation displacement, node 12, m
        152   -5.200E+01                                 F               0         Blade 1 Y translation displacement, node 12, m
        153   -9.708E+01                                 F               0         Blade 1 Z translation displacement, node 12, m
        154    1.998E+01                                 F               0         Blade 1 X translation displacement, node 13, m
        155   -5.498E+01                                 F               0         Blade 1 Y translation displacement, node 13, m
        156   -1.033E+02                                 F               0         Blade 1 Z translation displacement, node 13, m
        157    1.897E+01                                 F               0         Blade 1 X translation displacement, node 14, m
        158   -5.795E+01                                 F               0         Blade 1 Y translation displacement, node 14, m
        159   -1.096E+02                                 F               0         Blade 1 Z translation displacement, node 14, m
        160    1.796E+01                                 F               0         Blade 1 X translation displacement, node 15, m
        161   -6.093E+01                                 F               0         Blade 1 Y translation displacement, node 15, m
        162   -1.158E+02                                 F               0         Blade 1 Z translation displacement, node 15, m
        163    1.695E+01                                 F               0         Blade 1 X translation displacement, node 16, m
        164   -6.390E+01                                 F               0         Blade 1 Y translation displacement, node 16, m
        165   -1.221E+02                                 F               0         Blade 1 Z translation displacement, node 16, m
        166    1.595E+01                                 F               0         Blade 1 X translation displacement, node 17, m
        167   -6.687E+01                                 F               0         Blade 1 Y translation displacement, node 17, m
        168   -1.283E+02                                 F               0         Blade 1 Z translation displacement, node 17, m
        169    1.494E+01                                 F               0         Blade 1 X translation displacement, node 18, m
        170   -6.985E+01                                 F               0         Blade 1 Y translation displacement, node 18, m
        171   -1.345E+02                                 F               0         Blade 1 Z translation displacement, node 18, m
        172    1.393E+01                                 F               0         Blade 1 X translation displacement, node 19, m
        173   -7.282E+01                                 F               0         Blade 1 Y translation displacement, node 19, m
        174   -1.408E+02                                 F               0         Blade 1 Z translation displacement, node 19, m
        175    1.293E+01                                 F               0         Blade 1 X translation displacement, node 20, m
        176   -7.580E+01                                 F               0         Blade 1 Y translation displacement, node 20, m
        177   -1.470E+02                                 F               0         Blade 1 Z translation displacement, node 20, m
        178    1.192E+01                                 F               0         Blade 1 X translation displacement, node 21, m
        179   -7.877E+01                                 F               0         Blade 1 Y translation displacement, node 21, m
        180   -1.533E+02                                 F               0         Blade 1 Z translation displacement, node 21, m
        181    1.091E+01                                 F               0         Blade 1 X translation displacement, node 22, m
        182   -8.175E+01                                 F               0         Blade 1 Y translation displacement, node 22, m
        183   -1.595E+02                                 F               0         Blade 1 Z translation displacement, node 22, m
        184    9.904E+00                                 F               0         Blade 1 X translation displacement, node 23, m
        185   -8.472E+01                                 F               0         Blade 1 Y translation displacement, node 23, m
        186   -1.658E+02                                 F               0         Blade 1 Z translation displacement, node 23, m
        187    8.897E+00                                 F               0         Blade 1 X translation displacement, node 24, m
        188   -8.770E+01                                 F               0         Blade 1 Y translation displacement, node 24, m
        189   -1.720E+02                                 F               0         Blade 1 Z translation displacement, node 24, m
        190    7.889E+00                                 F               0         Blade 1 X translation displacement, node 25, m
        191   -9.067E+01                                 F               0         Blade 1 Y translation displacement, node 25, m
        192   -1.782E+02                                 F               0         Blade 1 Z translation displacement, node 25, m
        193    6.882E+00                                 F               0         Blade 1 X translation displacement, node 26, m
        194   -9.365E+01                                 F               0         Blade 1 Y translation displacement, node 26, m
        195   -1.845E+02                                 F               0         Blade 1 Z translation displacement, node 26, m
        196    5.875E+00                                 F               0         Blade 1 X translation displacement, node 27, m
        197   -9.662E+01                                 F               0         Blade 1 Y translation displacement, node 27, m
        198   -1.907E+02                                 F               0         Blade 1 Z translation displacement, node 27, m
        199    5.021E+00                                 F               0         Blade 1 X translation displacement, node 28, m
        200   -9.914E+01                                 F               0         Blade 1 Y translation displacement, node 28, m
        201   -1.960E+02                                 F               0         Blade 1 Z translation displacement, node 28, m
        202    7.387E-01,  3.258E-01, -5.901E-01         F               0         Blade 1 X orientation angle, node 1, rad
        203    6.558E-01, -5.499E-01,  5.173E-01         F               0         Blade 1 Y orientation angle, node 1, rad
        204   -1.559E-01, -7.691E-01, -6.198E-01         F               0         Blade 1 Z orientation angle, node 1, rad
        205    7.387E-01,  3.258E-01, -5.901E-01         F               0         Blade 1 X orientation angle, node 2, rad
        206    6.558E-01, -5.499E-01,  5.173E-01         F               0         Blade 1 Y orientation angle, node 2, rad
        207   -1.559E-01, -7.691E-01, -6.198E-01         F               0         Blade 1 Z orientation angle, node 2, rad
        208    8.731E-01,  1.862E-01, -4.506E-01         F               0         Blade 1 X orientation angle, node 3, rad
        209    4.620E-01, -6.114E-01,  6.424E-01         F               0         Blade 1 Y orientation angle, node 3, rad
        210   -1.559E-01, -7.691E-01, -6.198E-01         F               0         Blade 1 Z orientation angle, node 3, rad
        211    8.918E-01,  1.603E-01, -4.231E-01         F               0         Blade 1 X orientation angle, node 4, rad
        212    4.247E-01, -6.187E-01,  6.609E-01         F               0         Blade 1 Y orientation angle, node 4, rad
        213   -1.559E-01, -7.691E-01, -6.198E-01         F               0         Blade 1 Z orientation angle, node 4, rad
        214    9.054E-01,  1.397E-01, -4.010E-01         F               0         Blade 1 X orientation angle, node 5, rad
        215    3.949E-01, -6.237E-01,  6.745E-01         F               0         Blade 1 Y orientation angle, node 5, rad
        216   -1.559E-01, -7.691E-01, -6.198E-01         F               0         Blade 1 Z orientation angle, node 5, rad
        217    9.155E-01,  1.231E-01, -3.829E-01         F               0         Blade 1 X orientation angle, node 6, rad
        218    3.708E-01, -6.272E-01,  6.849E-01         F               0         Blade 1 Y orientation angle, node 6, rad
        219   -1.559E-01, -7.691E-01, -6.198E-01         F               0         Blade 1 Z orientation angle, node 6, rad
        220    9.234E-01,  1.093E-01, -3.679E-01         F               0         Blade 1 X orientation angle, node 7, rad
        221    3.507E-01, -6.297E-01,  6.931E-01         F               0         Blade 1 Y orientation angle, node 7, rad
        222   -1.559E-01, -7.691E-01, -6.198E-01         F               0         Blade 1 Z orientation angle, node 7, rad
        223    9.296E-01,  9.790E-02, -3.553E-01         F               0         Blade 1 X orientation angle, node 8, rad
        224    3.339E-01, -6.316E-01,  6.997E-01         F               0         Blade 1 Y orientation angle, node 8, rad
        225   -1.559E-01, -7.691E-01, -6.198E-01         F               0         Blade 1 Z orientation angle, node 8, rad
        226    9.346E-01,  8.819E-02, -3.445E-01         F               0         Blade 1 X orientation angle, node 9, rad
        227    3.196E-01, -6.330E-01,  7.051E-01         F               0         Blade 1 Y orientation angle, node 9, rad