
Linearized model: Predictions were generated on 19-Dec-2023 at 09:27:32 using OpenFAST, compiled as a 64-bit application using single precision at commit v3.5.1
 linked with  NWTC Subroutine Library; ElastoDyn; InflowWind; AeroDyn; ServoDyn; HydroDyn; MoorDyn (v2.0.0, 2023-09-18)

Description from the FAST input file: CCT-9 Campign 4 model. Input files to be run with OpenFAST 3.5.0. GitHub branch from Lu Wang (https://github.com/luwang00/openfast/tree/dev) compiled on March 7, 2023.

Simulation information:
   Simulation time:                  1003.0000 s
   Rotor Speed:                         1.0412 rad/s
   Azimuth:                             1.9676 rad
   Wind Speed:                         12.0000 m/s
   Number of continuous states:         0
   Number of discrete states:           0
   Number of constraint states:         0
   Number of inputs:                 1746
   Number of outputs:                   4
   Jacobians included in this file?    No

Order of inputs:
     Column   Operating Point                     Rotating Frame? Derivative Order Description
   ---------- ---------------                     --------------- ---------------- -----------
          1    1.511E+01                                 F               0         Tower X translation displacement, node 1, m
          2   -8.719E-01                                 F               0         Tower Y translation displacement, node 1, m
          3   -4.318E-01                                 F               0         Tower Z translation displacement, node 1, m
          4    1.702E+01                                 F               0         Tower X translation displacement, node 2, m
          5   -1.323E+00                                 F               0         Tower Y translation displacement, node 2, m
          6   -5.882E-01                                 F               0         Tower Z translation displacement, node 2, m
          7    1.896E+01                                 F               0         Tower X translation displacement, node 3, m
          8   -1.777E+00                                 F               0         Tower Y translation displacement, node 3, m
          9   -7.501E-01                                 F               0         Tower Z translation displacement, node 3, m
         10    2.093E+01                                 F               0         Tower X translation displacement, node 4, m
         11   -2.235E+00                                 F               0         Tower Y translation displacement, node 4, m
         12   -9.162E-01                                 F               0         Tower Z translation displacement, node 4, m
         13    2.292E+01                                 F               0         Tower X translation displacement, node 5, m
         14   -2.694E+00                                 F               0         Tower Y translation displacement, node 5, m
         15   -1.086E+00                                 F               0         Tower Z translation displacement, node 5, m
         16    2.492E+01                                 F               0         Tower X translation displacement, node 6, m
         17   -3.156E+00                                 F               0         Tower Y translation displacement, node 6, m
         18   -1.259E+00                                 F               0         Tower Z translation displacement, node 6, m
         19    2.694E+01                                 F               0         Tower X translation displacement, node 7, m
         20   -3.620E+00                                 F               0         Tower Y translation displacement, node 7, m
         21   -1.434E+00                                 F               0         Tower Z translation displacement, node 7, m
         22    2.898E+01                                 F               0         Tower X translation displacement, node 8, m
         23   -4.085E+00                                 F               0         Tower Y translation displacement, node 8, m
         24   -1.611E+00                                 F               0         Tower Z translation displacement, node 8, m
         25    3.102E+01                                 F               0         Tower X translation displacement, node 9, m
         26   -4.551E+00                                 F               0         Tower Y translation displacement, node 9, m
         27   -1.790E+00                                 F               0         Tower Z translation displacement, node 9, m
         28    3.306E+01                                 F               0         Tower X translation displacement, node 10, m
         29   -5.018E+00                                 F               0         Tower Y translation displacement, node 10, m
         30   -1.969E+00                                 F               0         Tower Z translation displacement, node 10, m
         31    3.511E+01                                 F               0         Tower X translation displacement, node 11, m
         32   -5.486E+00                                 F               0         Tower Y translation displacement, node 11, m
         33   -2.149E+00                                 F               0         Tower Z translation displacement, node 11, m
         34    9.881E-01,  1.601E-02, -1.527E-01         F               0         Tower X orientation angle, node 1, rad
         35   -1.025E-02,  9.992E-01,  3.839E-02         F               0         Tower Y orientation angle, node 1, rad
         36    1.532E-01, -3.637E-02,  9.875E-01         F               0         Tower Z orientation angle, node 1, rad
         37    9.877E-01,  1.610E-02, -1.553E-01         F               0         Tower X orientation angle, node 2, rad
         38   -1.020E-02,  9.992E-01,  3.871E-02         F               0         Tower Y orientation angle, node 2, rad
         39    1.558E-01, -3.665E-02,  9.871E-01         F               0         Tower Z orientation angle, node 2, rad
         40    9.874E-01,  1.619E-02, -1.576E-01         F               0         Tower X orientation angle, node 3, rad
         41   -1.016E-02,  9.992E-01,  3.899E-02         F               0         Tower Y orientation angle, node 3, rad
         42    1.581E-01, -3.690E-02,  9.867E-01         F               0         Tower Z orientation angle, node 3, rad
         43    9.871E-01,  1.626E-02, -1.596E-01         F               0         Tower X orientation angle, node 4, rad
         44   -1.012E-02,  9.992E-01,  3.924E-02         F               0         Tower Y orientation angle, node 4, rad
         45    1.601E-01, -3.712E-02,  9.864E-01         F               0         Tower Z orientation angle, node 4, rad
         46    9.868E-01,  1.632E-02, -1.612E-01         F               0         Tower X orientation angle, node 5, rad
         47   -1.008E-02,  9.992E-01,  3.945E-02         F               0         Tower Y orientation angle, node 5, rad
         48    1.617E-01, -3.730E-02,  9.861E-01         F               0         Tower Z orientation angle, node 5, rad
         49    9.866E-01,  1.637E-02, -1.625E-01         F               0         Tower X orientation angle, node 6, rad
         50   -1.005E-02,  9.992E-01,  3.963E-02         F               0         Tower Y orientation angle, node 6, rad
         51    1.630E-01, -3.746E-02,  9.859E-01         F               0         Tower Z orientation angle, node 6, rad
         52    9.864E-01,  1.641E-02, -1.635E-01         F               0         Tower X orientation angle, node 7, rad
         53   -1.003E-02,  9.992E-01,  3.977E-02         F               0         Tower Y orientation angle, node 7, rad
         54    1.641E-01, -3.759E-02,  9.857E-01         F               0         Tower Z orientation angle, node 7, rad
         55    9.863E-01,  1.644E-02, -1.643E-01         F               0         Tower X orientation angle, node 8, rad
         56   -1.001E-02,  9.992E-01,  3.988E-02         F               0         Tower Y orientation angle, node 8, rad
         57    1.648E-01, -3.769E-02,  9.856E-01         F               0         Tower Z orientation angle, node 8, rad
         58    9.862E-01,  1.646E-02, -1.648E-01         F               0         Tower X orientation angle, node 9, rad
         59   -9.998E-03,  9.992E-01,  3.996E-02         F               0         Tower Y orientation angle, node 9, rad
         60    1.654E-01, -3.776E-02,  9.855E-01         F               0         Tower Z orientation angle, node 9, rad
         61    9.861E-01,  1.647E-02, -1.652E-01         F               0         Tower X orientation angle, node 10, rad
         62   -9.989E-03,  9.991E-01,  4.002E-02         F               0         Tower Y orientation angle, node 10, rad
         63    1.657E-01, -3.781E-02,  9.855E-01         F               0         Tower Z orientation angle, node 10, rad
         64    9.861E-01,  1.648E-02, -1.654E-01         F               0         Tower X orientation angle, node 11, rad
         65   -9.984E-03,  9.991E-01,  4.004E-02         F               0         Tower Y orientation angle, node 11, rad
         66    1.659E-01, -3.784E-02,  9.854E-01         F               0         Tower Z orientation angle, node 11, rad
         67    4.924E-04                                 F               0         Tower X translation velocity, node 1, m/s
         68   -9.698E-03                                 F               0         Tower Y translation velocity, node 1, m/s
         69    4.513E-03                                 F               0         Tower Z translation velocity, node 1, m/s
         70    9.543E-04                                 F               0         Tower X translation velocity, node 2, m/s
         71   -1.678E-02                                 F               0         Tower Y translation velocity, node 2, m/s
         72    4.179E-03                                 F               0         Tower Z translation velocity, node 2, m/s
         73    1.481E-03                                 F               0         Tower X translation velocity, node 3, m/s
         74   -2.400E-02                                 F               0         Tower Y translation velocity, node 3, m/s
         75    3.826E-03                                 F               0         Tower Z translation velocity, node 3, m/s
         76    2.052E-03                                 F               0         Tower X translation velocity, node 4, m/s
         77   -3.133E-02                                 F               0         Tower Y translation velocity, node 4, m/s
         78    3.459E-03                                 F               0         Tower Z translation velocity, node 4, m/s
         79    2.655E-03                                 F               0         Tower X translation velocity, node 5, m/s
         80   -3.875E-02                                 F               0         Tower Y translation velocity, node 5, m/s
         81    3.081E-03                                 F               0         Tower Z translation velocity, node 5, m/s
         82    3.279E-03                                 F               0         Tower X translation velocity, node 6, m/s
         83   -4.625E-02                                 F               0         Tower Y translation velocity, node 6, m/s
         84    2.693E-03                                 F               0         Tower Z translation velocity, node 6, m/s
         85    3.914E-03                                 F               0         Tower X translation velocity, node 7, m/s
         86   -5.381E-02                                 F               0         Tower Y translation velocity, node 7, m/s
         87    2.300E-03                                 F               0         Tower Z translation velocity, node 7, m/s
         88    4.556E-03                                 F               0         Tower X translation velocity, node 8, m/s
         89   -6.144E-02                                 F               0         Tower Y translation velocity, node 8, m/s
         90    1.902E-03                                 F               0         Tower Z translation velocity, node 8, m/s
         91    5.198E-03                                 F               0         Tower X translation velocity, node 9, m/s
         92   -6.910E-02                                 F               0         Tower Y translation velocity, node 9, m/s
         93    1.501E-03                                 F               0         Tower Z translation velocity, node 9, m/s
         94    5.839E-03                                 F               0         Tower X translation velocity, node 10, m/s
         95   -7.680E-02                                 F               0         Tower Y translation velocity, node 10, m/s
         96    1.098E-03                                 F               0         Tower Z translation velocity, node 10, m/s
         97    6.476E-03                                 F               0         Tower X translation velocity, node 11, m/s
         98   -8.452E-02                                 F               0         Tower Y translation velocity, node 11, m/s
         99    6.943E-04                                 F               0         Tower Z translation velocity, node 11, m/s
        100    3.656E+01                                 F               0         Hub X translation displacement, node 1, m
        101   -5.961E+00                                 F               0         Hub Y translation displacement, node 1, m
        102   -4.778E-01                                 F               0         Hub Z translation displacement, node 1, m
        103    9.634E-01,  2.035E-02, -2.675E-01         F               0         Hub X orientation angle, node 1, rad
        104    2.511E-01, -4.192E-01,  8.725E-01         F               0         Hub Y orientation angle, node 1, rad
        105   -9.437E-02, -9.077E-01, -4.090E-01         F               0         Hub Z orientation angle, node 1, rad
        106    1.004E+00                                 F               0         Hub X rotation velocity, node 1, rad/s
        107    2.125E-02                                 F               0         Hub Y rotation velocity, node 1, rad/s
        108   -2.787E-01                                 F               0         Hub Z rotation velocity, node 1, rad/s
        109    9.555E-01,  3.277E-02, -2.932E-01         F               0         Blade root 1 X orientation angle, node 1, rad
        110    2.795E-01, -4.184E-01,  8.642E-01         F               0         Blade root 1 Y orientation angle, node 1, rad
        111   -9.437E-02, -9.077E-01, -4.090E-01         F               0         Blade root 1 Z orientation angle, node 1, rad
        112    9.691E-01,  3.744E-02, -2.439E-01         F               0         Blade root 2 X orientation angle, node 1, rad
        113   -1.786E-01, -5.756E-01, -7.980E-01         F               0         Blade root 2 Y orientation angle, node 1, rad
        114   -1.703E-01,  8.169E-01, -5.511E-01         F               0         Blade root 2 Z orientation angle, node 1, rad
        115    9.642E-01, -9.201E-03, -2.649E-01         F               0         Blade root 3 X orientation angle, node 1, rad
        116   -1.521E-02,  9.958E-01, -8.996E-02         F               0         Blade root 3 Y orientation angle, node 1, rad
        117    2.646E-01,  9.077E-02,  9.601E-01         F               0         Blade root 3 Z orientation angle, node 1, rad
        118    3.546E+01                                 F               0         Blade 1 X translation displacement, node 1, m
        119   -1.099E+01                                 F               0         Blade 1 Y translation displacement, node 1, m
        120   -8.253E+00                                 F               0         Blade 1 Z translation displacement, node 1, m
        121    3.520E+01                                 F               0         Blade 1 X translation displacement, node 2, m
        122   -1.220E+01                                 F               0         Blade 1 Y translation displacement, node 2, m
        123   -1.013E+01                                 F               0         Blade 1 Z translation displacement, node 2, m
        124    3.159E+01                                 F               0         Blade 1 X translation displacement, node 3, m
        125   -2.868E+01                                 F               0         Blade 1 Y translation displacement, node 3, m
        126   -3.560E+01                                 F               0         Blade 1 Z translation displacement, node 3, m
        127    3.082E+01                                 F               0         Blade 1 X translation displacement, node 4, m
        128   -3.219E+01                                 F               0         Blade 1 Y translation displacement, node 4, m
        129   -4.103E+01                                 F               0         Blade 1 Z translation displacement, node 4, m
        130    3.005E+01                                 F               0         Blade 1 X translation displacement, node 5, m
        131   -3.570E+01                                 F               0         Blade 1 Y translation displacement, node 5, m
        132   -4.646E+01                                 F               0         Blade 1 Z translation displacement, node 5, m
        133    2.928E+01                                 F               0         Blade 1 X translation displacement, node 6, m
        134   -3.921E+01                                 F               0         Blade 1 Y translation displacement, node 6, m
        135   -5.189E+01                                 F               0         Blade 1 Z translation displacement, node 6, m
        136    2.851E+01                                 F               0         Blade 1 X translation displacement, node 7, m
        137   -4.272E+01                                 F               0         Blade 1 Y translation displacement, node 7, m
        138   -5.732E+01                                 F               0         Blade 1 Z translation displacement, node 7, m
        139    2.774E+01                                 F               0         Blade 1 X translation displacement, node 8, m
        140   -4.623E+01                                 F               0         Blade 1 Y translation displacement, node 8, m
        141   -6.275E+01                                 F               0         Blade 1 Z translation displacement, node 8, m
        142    2.697E+01                                 F               0         Blade 1 X translation displacement, node 9, m
        143   -4.974E+01                                 F               0         Blade 1 Y translation displacement, node 9, m
        144   -6.817E+01                                 F               0         Blade 1 Z translation displacement, node 9, m
        145    2.620E+01                                 F               0         Blade 1 X translation displacement, node 10, m
        146   -5.325E+01                                 F               0         Blade 1 Y translation displacement, node 10, m
        147   -7.360E+01                                 F               0         Blade 1 Z translation displacement, node 10, m
        148    2.543E+01                                 F               0         Blade 1 X translation displacement, node 11, m
        149   -5.676E+01                                 F               0         Blade 1 Y translation displacement, node 11, m
        150   -7.903E+01                                 F               0         Blade 1 Z translation displacement, node 11, m
        151    2.466E+01                                 F               0         Blade 1 X translation displacement, node 12, m
        152   -6.027E+01                                 F               0         Blade 1 Y translation displacement, node 12, m
        153   -8.446E+01                                 F               0         Blade 1 Z translation displacement, node 12, m
        154    2.389E+01                                 F               0         Blade 1 X translation displacement, node 13, m
        155   -6.378E+01                                 F               0         Blade 1 Y translation displacement, node 13, m
        156   -8.989E+01                                 F               0         Blade 1 Z translation displacement, node 13, m
        157    2.312E+01                                 F               0         Blade 1 X translation displacement, node 14, m
        158   -6.729E+01                                 F               0         Blade 1 Y translation displacement, node 14, m
        159   -9.531E+01                                 F               0         Blade 1 Z translation displacement, node 14, m
        160    2.235E+01                                 F               0         Blade 1 X translation displacement, node 15, m
        161   -7.080E+01                                 F               0         Blade 1 Y translation displacement, node 15, m
        162   -1.007E+02                                 F               0         Blade 1 Z translation displacement, node 15, m
        163    2.158E+01                                 F               0         Blade 1 X translation displacement, node 16, m
        164   -7.431E+01                                 F               0         Blade 1 Y translation displacement, node 16, m
        165   -1.062E+02                                 F               0         Blade 1 Z translation displacement, node 16, m
        166    2.082E+01                                 F               0         Blade 1 X translation displacement, node 17, m
        167   -7.782E+01                                 F               0         Blade 1 Y translation displacement, node 17, m
        168   -1.116E+02                                 F               0         Blade 1 Z translation displacement, node 17, m
        169    2.005E+01                                 F               0         Blade 1 X translation displacement, node 18, m
        170   -8.133E+01                                 F               0         Blade 1 Y translation displacement, node 18, m
        171   -1.170E+02                                 F               0         Blade 1 Z translation displacement, node 18, m
        172    1.928E+01                                 F               0         Blade 1 X translation displacement, node 19, m
        173   -8.485E+01                                 F               0         Blade 1 Y translation displacement, node 19, m
        174   -1.225E+02                                 F               0         Blade 1 Z translation displacement, node 19, m
        175    1.851E+01                                 F               0         Blade 1 X translation displacement, node 20, m
        176   -8.836E+01                                 F               0         Blade 1 Y translation displacement, node 20, m
        177   -1.279E+02                                 F               0         Blade 1 Z translation displacement, node 20, m
        178    1.774E+01                                 F               0         Blade 1 X translation displacement, node 21, m
        179   -9.187E+01                                 F               0         Blade 1 Y translation displacement, node 21, m
        180   -1.333E+02                                 F               0         Blade 1 Z translation displacement, node 21, m
        181    1.697E+01                                 F               0         Blade 1 X translation displacement, node 22, m
        182   -9.538E+01                                 F               0         Blade 1 Y translation displacement, node 22, m
        183   -1.387E+02                                 F               0         Blade 1 Z translation displacement, node 22, m
        184    1.620E+01                                 F               0         Blade 1 X translation displacement, node 23, m
        185   -9.889E+01                                 F               0         Blade 1 Y translation displacement, node 23, m
        186   -1.442E+02                                 F               0         Blade 1 Z translation displacement, node 23, m
        187    1.543E+01                                 F               0         Blade 1 X translation displacement, node 24, m
        188   -1.024E+02                                 F               0         Blade 1 Y translation displacement, node 24, m
        189   -1.496E+02                                 F               0         Blade 1 Z translation displacement, node 24, m
        190    1.466E+01                                 F               0         Blade 1 X translation displacement, node 25, m
        191   -1.059E+02                                 F               0         Blade 1 Y translation displacement, node 25, m
        192   -1.550E+02                                 F               0         Blade 1 Z translation displacement, node 25, m
        193    1.389E+01                                 F               0         Blade 1 X translation displacement, node 26, m
        194   -1.094E+02                                 F               0         Blade 1 Y translation displacement, node 26, m
        195   -1.605E+02                                 F               0         Blade 1 Z translation displacement, node 26, m
        196    1.312E+01                                 F               0         Blade 1 X translation displacement, node 27, m
        197   -1.129E+02                                 F               0         Blade 1 Y translation displacement, node 27, m
        198   -1.659E+02                                 F               0         Blade 1 Z translation displacement, node 27, m
        199    1.247E+01                                 F               0         Blade 1 X translation displacement, node 28, m
        200   -1.159E+02                                 F               0         Blade 1 Y translation displacement, node 28, m
        201   -1.705E+02                                 F               0         Blade 1 Z translation displacement, node 28, m
        202    7.229E-01,  2.200E-01, -6.550E-01         F               0         Blade 1 X orientation angle, node 1, rad
        203    6.845E-01, -3.575E-01,  6.354E-01         F               0         Blade 1 Y orientation angle, node 1, rad
        204   -9.437E-02, -9.077E-01, -4.090E-01         F               0         Blade 1 Z orientation angle, node 1, rad
        205    7.229E-01,  2.200E-01, -6.550E-01         F               0         Blade 1 X orientation angle, node 2, rad
        206    6.845E-01, -3.575E-01,  6.354E-01         F               0         Blade 1 Y orientation angle, node 2, rad
        207   -9.437E-02, -9.077E-01, -4.090E-01         F               0         Blade 1 Z orientation angle, node 2, rad
        208    8.645E-01,  1.290E-01, -4.858E-01         F               0         Blade 1 X orientation angle, node 3, rad
        209    4.937E-01, -3.994E-01,  7.725E-01         F               0         Blade 1 Y orientation angle, node 3, rad
        210   -9.437E-02, -9.077E-01, -4.090E-01         F               0         Blade 1 Z orientation angle, node 3, rad
        211    8.846E-01,  1.120E-01, -4.527E-01         F               0         Blade 1 X orientation angle, node 4, rad
        212    4.567E-01, -4.045E-01,  7.923E-01         F               0         Blade 1 Y orientation angle, node 4, rad
        213   -9.437E-02, -9.077E-01, -4.090E-01         F               0         Blade 1 Z orientation angle, node 4, rad
        214    8.992E-01,  9.854E-02, -4.262E-01         F               0         Blade 1 X orientation angle, node 5, rad
        215    4.271E-01, -4.080E-01,  8.069E-01         F               0         Blade 1 Y orientation angle, node 5, rad
        216   -9.437E-02, -9.077E-01, -4.090E-01         F               0         Blade 1 Z orientation angle, node 5, rad
        217    9.103E-01,  8.768E-02, -4.046E-01         F               0         Blade 1 X orientation angle, node 6, rad
        218    4.031E-01, -4.105E-01,  8.179E-01         F               0         Blade 1 Y orientation angle, node 6, rad
        219   -9.437E-02, -9.077E-01, -4.090E-01         F               0         Blade 1 Z orientation angle, node 6, rad
        220    9.188E-01,  7.871E-02, -3.867E-01         F               0         Blade 1 X orientation angle, node 7, rad
        221    3.832E-01, -4.123E-01,  8.266E-01         F               0         Blade 1 Y orientation angle, node 7, rad
        222   -9.437E-02, -9.077E-01, -4.090E-01         F               0         Blade 1 Z orientation angle, node 7, rad
        223    9.256E-01,  7.121E-02, -3.716E-01         F               0         Blade 1 X orientation angle, node 8, rad
        224    3.664E-01, -4.136E-01,  8.334E-01         F               0         Blade 1 Y orientation angle, node 8, rad
        225   -9.437E-02, -9.077E-01, -4.090E-01         F               0         Blade 1 Z orientation angle, node 8, rad
        226    9.312E-01,  6.485E-02, -3.588E-01         F               0         Blade 1 X orientation angle, node 9, rad
        227    3.522E-01, -4.147E-01,  8.391E-01         F               0         Blade 1 Y orientation angle, node 9, rad