
Linearized model: Predictions were generated on 19-Dec-2023 at 09:27:32 using OpenFAST, compiled as a 64-bit application using single precision at commit v3.5.1
 linked with  NWTC Subroutine Library; ElastoDyn; InflowWind; AeroDyn; ServoDyn; HydroDyn; MoorDyn (v2.0.0, 2023-09-18)

Description from the FAST input file: CCT-9 Campign 4 model. Input files to be run with OpenFAST 3.5.0. GitHub branch from Lu Wang (https://github.com/luwang00/openfast/tree/dev) compiled on March 7, 2023.

Simulation information:
   Simulation time:                  1006.2250 s
   Rotor Speed:                         1.0409 rad/s
   Azimuth:                             5.3251 rad
   Wind Speed:                         12.0000 m/s
   Number of continuous states:        22
   Number of discrete states:           0
   Number of constraint states:         0
   Number of inputs:                 1890
   Number of outputs:                  38
   Jacobians included in this file?    No

Order of continuous states:
   Row/Column Operating Point                     Rotating Frame? Derivative Order Description
   ---------- ---------------                     --------------- ---------------- -----------
          1    1.230E+01                                 F               2         Platform horizontal surge translation DOF (internal DOF index = DOF_Sg), m
          2   -2.051E-01                                 F               2         Platform horizontal sway translation DOF (internal DOF index = DOF_Sw), m
          3   -1.863E-01                                 F               2         Platform vertical heave translation DOF (internal DOF index = DOF_Hv), m
          4    4.045E-02                                 F               2         Platform roll tilt rotation DOF (internal DOF index = DOF_R), rad
          5    1.551E-01                                 F               2         Platform pitch tilt rotation DOF (internal DOF index = DOF_P), rad
          6    1.232E-02                                 F               2         Platform yaw rotation DOF (internal DOF index = DOF_Y), rad
          7    1.076E+00                                 F               2         1st tower fore-aft bending mode DOF (internal DOF index = DOF_TFA1), m
          8    1.518E-01                                 F               2         1st tower side-to-side bending mode DOF (internal DOF index = DOF_TSS1), m
          9    1.608E-03                                 F               2         2nd tower fore-aft bending mode DOF (internal DOF index = DOF_TFA2), m
         10    7.168E-05                                 F               2         2nd tower side-to-side bending mode DOF (internal DOF index = DOF_TSS2), m
         11    3.754E+00                                 F               2         Variable speed generator DOF (internal DOF index = DOF_GeAz), rad
         12   -4.898E-04                                 F               2         First time derivative of Platform horizontal surge translation DOF (internal DOF index = DOF_Sg), m/s
         13   -7.712E-05                                 F               2         First time derivative of Platform horizontal sway translation DOF (internal DOF index = DOF_Sw), m/s
         14    4.123E-03                                 F               2         First time derivative of Platform vertical heave translation DOF (internal DOF index = DOF_Hv), m/s
         15    9.686E-04                                 F               2         First time derivative of Platform roll tilt rotation DOF (internal DOF index = DOF_R), rad/s
         16    2.054E-05                                 F               2         First time derivative of Platform pitch tilt rotation DOF (internal DOF index = DOF_P), rad/s
         17   -3.116E-04                                 F               2         First time derivative of Platform yaw rotation DOF (internal DOF index = DOF_Y), rad/s
         18   -1.155E-03                                 F               2         First time derivative of 1st tower fore-aft bending mode DOF (internal DOF index = DOF_TFA1), m/s
         19    5.318E-03                                 F               2         First time derivative of 1st tower side-to-side bending mode DOF (internal DOF index = DOF_TSS1), m/s
         20   -1.508E-05                                 F               2         First time derivative of 2nd tower fore-aft bending mode DOF (internal DOF index = DOF_TFA2), m/s
         21    3.212E-06                                 F               2         First time derivative of 2nd tower side-to-side bending mode DOF (internal DOF index = DOF_TSS2), m/s
         22    1.041E+00                                 F               2         First time derivative of Variable speed generator DOF (internal DOF index = DOF_GeAz), rad/s

Order of continuous state derivatives:
   Row/Column Operating Point                     Rotating Frame? Derivative Order Description
   ---------- ---------------                     --------------- ---------------- -----------
          1   -4.898E-04                                 F               2         First time derivative of Platform horizontal surge translation DOF (internal DOF index = DOF_Sg), m/s
          2   -7.712E-05                                 F               2         First time derivative of Platform horizontal sway translation DOF (internal DOF index = DOF_Sw), m/s
          3    4.123E-03                                 F               2         First time derivative of Platform vertical heave translation DOF (internal DOF index = DOF_Hv), m/s
          4    9.686E-04                                 F               2         First time derivative of Platform roll tilt rotation DOF (internal DOF index = DOF_R), rad/s
          5    2.054E-05                                 F               2         First time derivative of Platform pitch tilt rotation DOF (internal DOF index = DOF_P), rad/s
          6   -3.116E-04                                 F               2         First time derivative of Platform yaw rotation DOF (internal DOF index = DOF_Y), rad/s
          7   -1.155E-03                                 F               2         First time derivative of 1st tower fore-aft bending mode DOF (internal DOF index = DOF_TFA1), m/s
          8    5.318E-03                                 F               2         First time derivative of 1st tower side-to-side bending mode DOF (internal DOF index = DOF_TSS1), m/s
          9   -1.508E-05                                 F               2         First time derivative of 2nd tower fore-aft bending mode DOF (internal DOF index = DOF_TFA2), m/s
         10    3.212E-06                                 F               2         First time derivative of 2nd tower side-to-side bending mode DOF (internal DOF index = DOF_TSS2), m/s
         11    1.041E+00                                 F               2         First time derivative of Variable speed generator DOF (internal DOF index = DOF_GeAz), rad/s
         12   -2.247E-04                                 F               2         First time derivative of First time derivative of Platform horizontal surge translation DOF (internal DOF index = DOF_Sg), m/s/s
         13    5.401E-04                                 F               2         First time derivative of First time derivative of Platform horizontal sway translation DOF (internal DOF index = DOF_Sw), m/s/s
         14   -1.080E-03                                 F               2         First time derivative of First time derivative of Platform vertical heave translation DOF (internal DOF index = DOF_Hv), m/s/s
         15    2.374E-05                                 F               2         First time derivative of First time derivative of Platform roll tilt rotation DOF (internal DOF index = DOF_R), rad/s/s
         16   -1.842E-05                                 F               2         First time derivative of First time derivative of Platform pitch tilt rotation DOF (internal DOF index = DOF_P), rad/s/s
         17    2.686E-06                                 F               2         First time derivative of First time derivative of Platform yaw rotation DOF (internal DOF index = DOF_Y), rad/s/s
         18    1.857E-03                                 F               2         First time derivative of First time derivative of 1st tower fore-aft bending mode DOF (internal DOF index = DOF_TFA1), m/s/s
         19    2.902E-04                                 F               2         First time derivative of First time derivative of 1st tower side-to-side bending mode DOF (internal DOF index = DOF_TSS1), m/s/s
         20   -1.793E-06                                 F               2         First time derivative of First time derivative of 2nd tower fore-aft bending mode DOF (internal DOF index = DOF_TFA2), m/s/s
         21   -4.539E-06                                 F               2         First time derivative of First time derivative of 2nd tower side-to-side bending mode DOF (internal DOF index = DOF_TSS2), m/s/s
         22   -1.504E-04                                 F               2         First time derivative of First time derivative of Variable speed generator DOF (internal DOF index = DOF_GeAz), rad/s/s

Order of inputs:
     Column   Operating Point                     Rotating Frame? Derivative Order Description
   ---------- ---------------                     --------------- ---------------- -----------
          1    7.940E+01                                 F               0         Blade 1 X force, node 1, N
          2    3.304E+01                                 F               0         Blade 1 Y force, node 1, N
          3   -6.447E+01                                 F               0         Blade 1 Z force, node 1, N
          4    3.766E+02                                 F               0         Blade 1 X force, node 2, N
          5    7.383E+01                                 F               0         Blade 1 Y force, node 2, N
          6   -1.938E+02                                 F               0         Blade 1 Z force, node 2, N
          7    5.407E+02                                 F               0         Blade 1 X force, node 3, N
          8    2.940E+01                                 F               0         Blade 1 Y force, node 3, N
          9   -1.748E+02                                 F               0         Blade 1 Z force, node 3, N
         10    7.452E+02                                 F               0         Blade 1 X force, node 4, N
         11   -7.099E+00                                 F               0         Blade 1 Y force, node 4, N
         12   -1.766E+02                                 F               0         Blade 1 Z force, node 4, N
         13    9.496E+02                                 F               0         Blade 1 X force, node 5, N
         14   -4.359E+01                                 F               0         Blade 1 Y force, node 5, N
         15   -1.783E+02                                 F               0         Blade 1 Z force, node 5, N
         16    1.154E+03                                 F               0         Blade 1 X force, node 6, N
         17   -8.009E+01                                 F               0         Blade 1 Y force, node 6, N
         18   -1.801E+02                                 F               0         Blade 1 Z force, node 6, N
         19    1.359E+03                                 F               0         Blade 1 X force, node 7, N
         20   -1.166E+02                                 F               0         Blade 1 Y force, node 7, N
         21   -1.819E+02                                 F               0         Blade 1 Z force, node 7, N
         22    1.563E+03                                 F               0         Blade 1 X force, node 8, N
         23   -1.531E+02                                 F               0         Blade 1 Y force, node 8, N
         24   -1.836E+02                                 F               0         Blade 1 Z force, node 8, N
         25    1.767E+03                                 F               0         Blade 1 X force, node 9, N
         26   -1.896E+02                                 F               0         Blade 1 Y force, node 9, N
         27   -1.854E+02                                 F               0         Blade 1 Z force, node 9, N
         28    1.972E+03                                 F               0         Blade 1 X force, node 10, N
         29   -2.261E+02                                 F               0         Blade 1 Y force, node 10, N
         30   -1.872E+02                                 F               0         Blade 1 Z force, node 10, N
         31    2.176E+03                                 F               0         Blade 1 X force, node 11, N
         32   -2.626E+02                                 F               0         Blade 1 Y force, node 11, N
         33   -1.889E+02                                 F               0         Blade 1 Z force, node 11, N
         34    2.381E+03                                 F               0         Blade 1 X force, node 12, N
         35   -2.991E+02                                 F               0         Blade 1 Y force, node 12, N
         36   -1.907E+02                                 F               0         Blade 1 Z force, node 12, N
         37    2.585E+03                                 F               0         Blade 1 X force, node 13, N
         38   -3.356E+02                                 F               0         Blade 1 Y force, node 13, N
         39   -1.925E+02                                 F               0         Blade 1 Z force, node 13, N
         40    2.790E+03                                 F               0         Blade 1 X force, node 14, N
         41   -3.720E+02                                 F               0         Blade 1 Y force, node 14, N
         42   -1.942E+02                                 F               0         Blade 1 Z force, node 14, N
         43    2.994E+03                                 F               0         Blade 1 X force, node 15, N
         44   -4.085E+02                                 F               0         Blade 1 Y force, node 15, N
         45   -1.960E+02                                 F               0         Blade 1 Z force, node 15, N
         46    3.199E+03                                 F               0         Blade 1 X force, node 16, N
         47   -4.450E+02                                 F               0         Blade 1 Y force, node 16, N
         48   -1.978E+02                                 F               0         Blade 1 Z force, node 16, N
         49    3.945E+03                                 F               0         Blade 1 X force, node 17, N
         50   -5.556E+02                                 F               0         Blade 1 Y force, node 17, N
         51   -2.349E+02                                 F               0         Blade 1 Z force, node 17, N
         52    3.009E+03                                 F               0         Blade 1 X force, node 18, N
         53   -4.060E+02                                 F               0         Blade 1 Y force, node 18, N
         54   -2.030E+02                                 F               0         Blade 1 Z force, node 18, N
         55    3.684E+03                                 F               0         Blade 1 X force, node 19, N
         56   -4.688E+02                                 F               0         Blade 1 Y force, node 19, N
         57   -2.869E+02                                 F               0         Blade 1 Z force, node 19, N
         58    3.134E+03                                 F               0         Blade 1 X force, node 20, N
         59   -3.765E+02                                 F               0         Blade 1 Y force, node 20, N
         60   -2.743E+02                                 F               0         Blade 1 Z force, node 20, N
         61    4.618E+03                                 F               0         Blade 1 X force, node 21, N
         62   -5.181E+02                                 F               0         Blade 1 Y force, node 21, N
         63   -4.537E+02                                 F               0         Blade 1 Z force, node 21, N
         64    4.068E+03                                 F               0         Blade 1 X force, node 22, N
         65   -4.259E+02                                 F               0         Blade 1 Y force, node 22, N
         66   -4.407E+02                                 F               0         Blade 1 Z force, node 22, N
         67    4.170E+03                                 F               0         Blade 1 X force, node 23, N
         68   -4.094E+02                                 F               0         Blade 1 Y force, node 23, N
         69   -4.887E+02                                 F               0         Blade 1 Z force, node 23, N
         70    4.348E+03                                 F               0         Blade 1 X force, node 24, N
         71   -3.999E+02                                 F               0         Blade 1 Y force, node 24, N
         72   -5.457E+02                                 F               0         Blade 1 Z force, node 24, N
         73    4.450E+03                                 F               0         Blade 1 X force, node 25, N
         74   -3.836E+02                                 F               0         Blade 1 Y force, node 25, N
         75   -5.932E+02                                 F               0         Blade 1 Z force, node 25, N
         76    4.577E+03                                 F               0         Blade 1 X force, node 26, N
         77   -3.697E+02                                 F               0         Blade 1 Y force, node 26, N
         78   -6.437E+02                                 F               0         Blade 1 Z force, node 26, N
         79    5.478E+03                                 F               0         Blade 1 X force, node 27, N
         80   -4.127E+02                                 F               0         Blade 1 Y force, node 27, N
         81   -8.108E+02                                 F               0         Blade 1 Z force, node 27, N
         82    4.057E+03                                 F               0         Blade 1 X force, node 28, N
         83   -2.852E+02                                 F               0         Blade 1 Y force, node 28, N
         84   -6.281E+02                                 F               0         Blade 1 Z force, node 28, N
         85    4.958E+03                                 F               0         Blade 1 X force, node 29, N
         86   -3.284E+02                                 F               0         Blade 1 Y force, node 29, N
         87   -7.949E+02                                 F               0         Blade 1 Z force, node 29, N
         88    4.214E+03                                 F               0         Blade 1 X force, node 30, N
         89   -2.628E+02                                 F               0         Blade 1 Y force, node 30, N
         90   -6.977E+02                                 F               0         Blade 1 Z force, node 30, N
         91    6.083E+03                                 F               0         Blade 1 X force, node 31, N
         92   -3.530E+02                                 F               0         Blade 1 Y force, node 31, N
         93   -1.043E+03                                 F               0         Blade 1 Z force, node 31, N
         94    5.339E+03                                 F               0         Blade 1 X force, node 32, N
         95   -2.876E+02                                 F               0         Blade 1 Y force, node 32, N
         96   -9.453E+02                                 F               0         Blade 1 Z force, node 32, N
         97    5.466E+03                                 F               0         Blade 1 X force, node 33, N
         98   -2.740E+02                                 F               0         Blade 1 Y force, node 33, N
         99   -9.951E+02                                 F               0         Blade 1 Z force, node 33, N
        100    5.593E+03                                 F               0         Blade 1 X force, node 34, N
        101   -2.605E+02                                 F               0         Blade 1 Y force, node 34, N
        102   -1.045E+03                                 F               0         Blade 1 Z force, node 34, N
        103    5.721E+03                                 F               0         Blade 1 X force, node 35, N
        104   -2.472E+02                                 F               0         Blade 1 Y force, node 35, N
        105   -1.095E+03                                 F               0         Blade 1 Z force, node 35, N
        106    5.847E+03                                 F               0         Blade 1 X force, node 36, N
        107   -2.338E+02                                 F               0         Blade 1 Y force, node 36, N
        108   -1.145E+03                                 F               0         Blade 1 Z force, node 36, N
        109    6.990E+03                                 F               0         Blade 1 X force, node 37, N
        110   -2.565E+02                                 F               0         Blade 1 Y force, node 37, N
        111   -1.400E+03                                 F               0         Blade 1 Z force, node 37, N
        112    5.088E+03                                 F               0         Blade 1 X force, node 38, N
        113   -1.711E+02                                 F               0         Blade 1 Y force, node 38, N
        114   -1.040E+03                                 F               0         Blade 1 Z force, node 38, N
        115    6.232E+03                                 F               0         Blade 1 X force, node 39, N
        116   -1.940E+02                                 F               0         Blade 1 Y force, node 39, N
        117   -1.295E+03                                 F               0         Blade 1 Z force, node 39, N
        118    5.311E+03                                 F               0         Blade 1 X force, node 40, N
        119   -1.526E+02                                 F               0         Blade 1 Y force, node 40, N
        120   -1.121E+03                                 F               0         Blade 1 Z force, node 40, N
        121    7.538E+03                                 F               0         Blade 1 X force, node 41, N
        122   -1.961E+02                                 F               0         Blade 1 Y force, node 41, N
        123   -1.618E+03                                 F               0         Blade 1 Z force, node 41, N
        124    6.616E+03                                 F               0         Blade 1 X force, node 42, N
        125   -1.546E+02                                 F               0         Blade 1 Y force, node 42, N
        126   -1.444E+03                                 F               0         Blade 1 Z force, node 42, N
        127    6.743E+03                                 F               0         Blade 1 X force, node 43, N
        128   -1.414E+02                                 F               0         Blade 1 Y force, node 43, N
        129   -1.493E+03                                 F               0         Blade 1 Z force, node 43, N
        130    6.907E+03                                 F               0         Blade 1 X force, node 44, N
        131   -1.290E+02                                 F               0         Blade 1 Y force, node 44, N
        132   -1.551E+03                                 F               0         Blade 1 Z force, node 44, N
        133    6.961E+03                                 F               0         Blade 1 X force, node 45, N
        134   -1.146E+02                                 F               0         Blade 1 Y force, node 45, N
        135   -1.584E+03                                 F               0         Blade 1 Z force, node 45, N
        136    7.126E+03                                 F               0         Blade 1 X force, node 46, N
        137   -1.022E+02                                 F               0         Blade 1 Y force, node 46, N
        138   -1.642E+03                                 F               0         Blade 1 Z force, node 46, N
        139    8.526E+03                                 F               0         Blade 1 X force, node 47, N
        140   -1.037E+02                                 F               0         Blade 1 Y force, node 47, N
        141   -1.990E+03                                 F               0         Blade 1 Z force, node 47, N
        142    6.109E+03                                 F               0         Blade 1 X force, node 48, N
        143   -6.172E+01                                 F               0         Blade 1 Y force, node 48, N
        144   -1.443E+03                                 F               0         Blade 1 Z force, node 48, N
        145    7.508E+03                                 F               0         Blade 1 X force, node 49, N
        146   -6.326E+01                                 F               0         Blade 1 Y force, node 49, N
        147   -1.790E+03                                 F               0         Blade 1 Z force, node 49, N
        148    6.422E+03                                 F               0         Blade 1 X force, node 50, N
        149   -4.351E+01                                 F               0         Blade 1 Y force, node 50, N
        150   -1.545E+03                                 F               0         Blade 1 Z force, node 50, N
        151    8.978E+03                                 F               0         Blade 1 X force, node 51, N
        152   -4.414E+01                                 F               0         Blade 1 Y force, node 51, N
        153   -2.183E+03                                 F               0         Blade 1 Z force, node 51, N
        154    7.894E+03                                 F               0         Blade 1 X force, node 52, N
        155   -2.454E+01                                 F               0         Blade 1 Y force, node 52, N
        156   -1.939E+03                                 F               0         Blade 1 Z force, node 52, N
        157    8.023E+03                                 F               0         Blade 1 X force, node 53, N
        158   -1.171E+01                                 F               0         Blade 1 Y force, node 53, N
        159   -1.988E+03                                 F               0         Blade 1 Z force, node 53, N
        160    8.243E+03                                 F               0         Blade 1 X force, node 54, N
        161    1.166E+00                                 F               0         Blade 1 Y force, node 54, N
        162   -2.061E+03                                 F               0         Blade 1 Z force, node 54, N
        163    8.193E+03                                 F               0         Blade 1 X force, node 55, N
        164    1.385E+01                                 F               0         Blade 1 Y force, node 55, N
        165   -2.065E+03                                 F               0         Blade 1 Z force, node 55, N
        166    8.412E+03                                 F               0         Blade 1 X force, node 56, N
        167    2.671E+01                                 F               0         Blade 1 Y force, node 56, N
        168   -2.137E+03                                 F               0         Blade 1 Z force, node 56, N
        169    1.009E+04                                 F               0         Blade 1 X force, node 57, N
        170    4.765E+01                                 F               0         Blade 1 Y force, node 57, N
        171   -2.584E+03                                 F               0         Blade 1 Z force, node 57, N
        172    7.125E+03                                 F               0         Blade 1 X force, node 58, N
        173    4.414E+01                                 F               0         Blade 1 Y force, node 58, N
        174   -1.839E+03                                 F               0         Blade 1 Z force, node 58, N
        175    8.800E+03                                 F               0         Blade 1 X force, node 59, N
        176    6.505E+01                                 F               0         Blade 1 Y force, node 59, N
        177   -2.286E+03                                 F               0         Blade 1 Z force, node 59, N
        178    7.563E+03                                 F               0         Blade 1 X force, node 60, N
        179    6.491E+01                                 F               0         Blade 1 Y force, node 60, N
        180   -1.977E+03                                 F               0         Blade 1 Z force, node 60, N
        181    1.043E+04                                 F               0         Blade 1 X force, node 61, N
        182    1.035E+02                                 F               0         Blade 1 Y force, node 61, N
        183   -2.744E+03                                 F               0         Blade 1 Z force, node 61, N
        184    9.186E+03                                 F               0         Blade 1 X force, node 62, N