
Linearized model: Predictions were generated on 19-Dec-2023 at 09:27:32 using OpenFAST, compiled as a 64-bit application using single precision at commit v3.5.1
 linked with  NWTC Subroutine Library; ElastoDyn; InflowWind; AeroDyn; ServoDyn; HydroDyn; MoorDyn (v2.0.0, 2023-09-18)

Description from the FAST input file: CCT-9 Campign 4 model. Input files to be run with OpenFAST 3.5.0. GitHub branch from Lu Wang (https://github.com/luwang00/openfast/tree/dev) compiled on March 7, 2023.

Simulation information:
   Simulation time:                  1007.2250 s
   Rotor Speed:                         1.0408 rad/s
   Azimuth:                             0.0827 rad
   Wind Speed:                         12.0000 m/s
   Number of continuous states:        22
   Number of discrete states:           0
   Number of constraint states:         0
   Number of inputs:                 4033
   Number of outputs:                  49
   Jacobians included in this file?    No

Order of continuous states:
   Row/Column Operating Point                     Rotating Frame? Derivative Order Description
   ---------- ---------------                     --------------- ---------------- -----------
          1    1.230E+01                                 F               2         ED Platform horizontal surge translation DOF (internal DOF index = DOF_Sg), m
          2   -2.048E-01                                 F               2         ED Platform horizontal sway translation DOF (internal DOF index = DOF_Sw), m
          3   -1.828E-01                                 F               2         ED Platform vertical heave translation DOF (internal DOF index = DOF_Hv), m
          4    4.143E-02                                 F               2         ED Platform roll tilt rotation DOF (internal DOF index = DOF_R), rad
          5    1.551E-01                                 F               2         ED Platform pitch tilt rotation DOF (internal DOF index = DOF_P), rad
          6    1.201E-02                                 F               2         ED Platform yaw rotation DOF (internal DOF index = DOF_Y), rad
          7    1.077E+00                                 F               2         ED 1st tower fore-aft bending mode DOF (internal DOF index = DOF_TFA1), m
          8    1.577E-01                                 F               2         ED 1st tower side-to-side bending mode DOF (internal DOF index = DOF_TSS1), m
          9    1.603E-03                                 F               2         ED 2nd tower fore-aft bending mode DOF (internal DOF index = DOF_TFA2), m
         10    7.292E-05                                 F               2         ED 2nd tower side-to-side bending mode DOF (internal DOF index = DOF_TSS2), m
         11    4.795E+00                                 F               2         ED Variable speed generator DOF (internal DOF index = DOF_GeAz), rad
         12   -7.723E-04                                 F               2         ED First time derivative of Platform horizontal surge translation DOF (internal DOF index = DOF_Sg), m/s
         13    5.895E-04                                 F               2         ED First time derivative of Platform horizontal sway translation DOF (internal DOF index = DOF_Sw), m/s
         14    3.013E-03                                 F               2         ED First time derivative of Platform vertical heave translation DOF (internal DOF index = DOF_Hv), m/s
         15    9.644E-04                                 F               2         ED First time derivative of Platform roll tilt rotation DOF (internal DOF index = DOF_R), rad/s
         16   -2.142E-06                                 F               2         ED First time derivative of Platform pitch tilt rotation DOF (internal DOF index = DOF_P), rad/s
         17   -2.964E-04                                 F               2         ED First time derivative of Platform yaw rotation DOF (internal DOF index = DOF_Y), rad/s
         18    2.490E-03                                 F               2         ED First time derivative of 1st tower fore-aft bending mode DOF (internal DOF index = DOF_TFA1), m/s
         19    7.047E-03                                 F               2         ED First time derivative of 1st tower side-to-side bending mode DOF (internal DOF index = DOF_TSS1), m/s
         20    6.551E-06                                 F               2         ED First time derivative of 2nd tower fore-aft bending mode DOF (internal DOF index = DOF_TFA2), m/s
         21    9.403E-07                                 F               2         ED First time derivative of 2nd tower side-to-side bending mode DOF (internal DOF index = DOF_TSS2), m/s
         22    1.041E+00                                 F               2         ED First time derivative of Variable speed generator DOF (internal DOF index = DOF_GeAz), rad/s

Order of continuous state derivatives:
   Row/Column Operating Point                     Rotating Frame? Derivative Order Description
   ---------- ---------------                     --------------- ---------------- -----------
          1   -7.723E-04                                 F               2         First time derivative of ED Platform horizontal surge translation DOF (internal DOF index = DOF_Sg), m/s
          2    5.895E-04                                 F               2         First time derivative of ED Platform horizontal sway translation DOF (internal DOF index = DOF_Sw), m/s
          3    3.013E-03                                 F               2         First time derivative of ED Platform vertical heave translation DOF (internal DOF index = DOF_Hv), m/s
          4    9.644E-04                                 F               2         First time derivative of ED Platform roll tilt rotation DOF (internal DOF index = DOF_R), rad/s
          5   -2.142E-06                                 F               2         First time derivative of ED Platform pitch tilt rotation DOF (internal DOF index = DOF_P), rad/s
          6   -2.964E-04                                 F               2         First time derivative of ED Platform yaw rotation DOF (internal DOF index = DOF_Y), rad/s
          7    2.490E-03                                 F               2         First time derivative of ED 1st tower fore-aft bending mode DOF (internal DOF index = DOF_TFA1), m/s
          8    7.047E-03                                 F               2         First time derivative of ED 1st tower side-to-side bending mode DOF (internal DOF index = DOF_TSS1), m/s
          9    6.551E-06                                 F               2         First time derivative of ED 2nd tower fore-aft bending mode DOF (internal DOF index = DOF_TFA2), m/s
         10    9.403E-07                                 F               2         First time derivative of ED 2nd tower side-to-side bending mode DOF (internal DOF index = DOF_TSS2), m/s
         11    1.041E+00                                 F               2         First time derivative of ED Variable speed generator DOF (internal DOF index = DOF_GeAz), rad/s
         12    1.393E-04                                 F               2         First time derivative of ED First time derivative of Platform horizontal surge translation DOF (internal DOF index = DOF_Sg), m/s/s
         13    6.772E-04                                 F               2         First time derivative of ED First time derivative of Platform horizontal sway translation DOF (internal DOF index = DOF_Sw), m/s/s
         14   -1.161E-03                                 F               2         First time derivative of ED First time derivative of Platform vertical heave translation DOF (internal DOF index = DOF_Hv), m/s/s
         15   -2.496E-05                                 F               2         First time derivative of ED First time derivative of Platform roll tilt rotation DOF (internal DOF index = DOF_R), rad/s/s
         16   -1.062E-06                                 F               2         First time derivative of ED First time derivative of Platform pitch tilt rotation DOF (internal DOF index = DOF_P), rad/s/s
         17    2.811E-05                                 F               2         First time derivative of ED First time derivative of Platform yaw rotation DOF (internal DOF index = DOF_Y), rad/s/s
         18   -1.880E-03                                 F               2         First time derivative of ED First time derivative of 1st tower fore-aft bending mode DOF (internal DOF index = DOF_TFA1), m/s/s
         19    3.036E-03                                 F               2         First time derivative of ED First time derivative of 1st tower side-to-side bending mode DOF (internal DOF index = DOF_TSS1), m/s/s
         20    6.032E-06                                 F               2         First time derivative of ED First time derivative of 2nd tower fore-aft bending mode DOF (internal DOF index = DOF_TFA2), m/s/s
         21   -3.076E-06                                 F               2         First time derivative of ED First time derivative of 2nd tower side-to-side bending mode DOF (internal DOF index = DOF_TSS2), m/s/s
         22   -1.162E-04                                 F               2         First time derivative of ED First time derivative of Variable speed generator DOF (internal DOF index = DOF_GeAz), rad/s/s

Order of inputs:
     Column   Operating Point                     Rotating Frame? Derivative Order Description
   ---------- ---------------                     --------------- ---------------- -----------
          1   -1.080E+01                                 F               0         IfW X-component position of node 1 (hub), m
          2    0.000E+00                                 F               0         IfW Y-component position of node 1 (hub), m
          3    1.497E+02                                 F               0         IfW Z-component position of node 1 (hub), m
          4    2.726E+01                                 F               0         IfW X-component position of node 2 (blade 1, node 1), m
          5   -7.192E+00                                 F               0         IfW Y-component position of node 2 (blade 1, node 1), m
          6    1.546E+02                                 F               0         IfW Z-component position of node 2 (blade 1, node 1), m
          7    2.762E+01                                 F               0         IfW X-component position of node 3 (blade 1, node 2), m
          8   -7.355E+00                                 F               0         IfW Y-component position of node 3 (blade 1, node 2), m
          9    1.558E+02                                 F               0         IfW Z-component position of node 3 (blade 1, node 2), m
         10    3.248E+01                                 F               0         IfW X-component position of node 4 (blade 1, node 3), m
         11   -9.574E+00                                 F               0         IfW Y-component position of node 4 (blade 1, node 3), m
         12    1.732E+02                                 F               0         IfW Z-component position of node 4 (blade 1, node 3), m
         13    3.352E+01                                 F               0         IfW X-component position of node 5 (blade 1, node 4), m
         14   -1.005E+01                                 F               0         IfW Y-component position of node 5 (blade 1, node 4), m
         15    1.769E+02                                 F               0         IfW Z-component position of node 5 (blade 1, node 4), m
         16    3.456E+01                                 F               0         IfW X-component position of node 6 (blade 1, node 5), m
         17   -1.052E+01                                 F               0         IfW Y-component position of node 6 (blade 1, node 5), m
         18    1.806E+02                                 F               0         IfW Z-component position of node 6 (blade 1, node 5), m
         19    3.559E+01                                 F               0         IfW X-component position of node 7 (blade 1, node 6), m
         20   -1.099E+01                                 F               0         IfW Y-component position of node 7 (blade 1, node 6), m
         21    1.843E+02                                 F               0         IfW Z-component position of node 7 (blade 1, node 6), m
         22    3.663E+01                                 F               0         IfW X-component position of node 8 (blade 1, node 7), m
         23   -1.147E+01                                 F               0         IfW Y-component position of node 8 (blade 1, node 7), m
         24    1.880E+02                                 F               0         IfW Z-component position of node 8 (blade 1, node 7), m
         25    3.767E+01                                 F               0         IfW X-component position of node 9 (blade 1, node 8), m
         26   -1.194E+01                                 F               0         IfW Y-component position of node 9 (blade 1, node 8), m
         27    1.917E+02                                 F               0         IfW Z-component position of node 9 (blade 1, node 8), m
         28    3.870E+01                                 F               0         IfW X-component position of node 10 (blade 1, node 9), m
         29   -1.241E+01                                 F               0         IfW Y-component position of node 10 (blade 1, node 9), m
         30    1.954E+02                                 F               0         IfW Z-component position of node 10 (blade 1, node 9), m
         31    3.974E+01                                 F               0         IfW X-component position of node 11 (blade 1, node 10), m
         32   -1.288E+01                                 F               0         IfW Y-component position of node 11 (blade 1, node 10), m
         33    1.990E+02                                 F               0         IfW Z-component position of node 11 (blade 1, node 10), m
         34    4.077E+01                                 F               0         IfW X-component position of node 12 (blade 1, node 11), m
         35   -1.336E+01                                 F               0         IfW Y-component position of node 12 (blade 1, node 11), m
         36    2.027E+02                                 F               0         IfW Z-component position of node 12 (blade 1, node 11), m
         37    4.181E+01                                 F               0         IfW X-component position of node 13 (blade 1, node 12), m
         38   -1.383E+01                                 F               0         IfW Y-component position of node 13 (blade 1, node 12), m
         39    2.064E+02                                 F               0         IfW Z-component position of node 13 (blade 1, node 12), m
         40    4.285E+01                                 F               0         IfW X-component position of node 14 (blade 1, node 13), m
         41   -1.430E+01                                 F               0         IfW Y-component position of node 14 (blade 1, node 13), m
         42    2.101E+02                                 F               0         IfW Z-component position of node 14 (blade 1, node 13), m
         43    4.388E+01                                 F               0         IfW X-component position of node 15 (blade 1, node 14), m
         44   -1.478E+01                                 F               0         IfW Y-component position of node 15 (blade 1, node 14), m
         45    2.138E+02                                 F               0         IfW Z-component position of node 15 (blade 1, node 14), m
         46    4.492E+01                                 F               0         IfW X-component position of node 16 (blade 1, node 15), m
         47   -1.525E+01                                 F               0         IfW Y-component position of node 16 (blade 1, node 15), m
         48    2.175E+02                                 F               0         IfW Z-component position of node 16 (blade 1, node 15), m
         49    4.596E+01                                 F               0         IfW X-component position of node 17 (blade 1, node 16), m
         50   -1.572E+01                                 F               0         IfW Y-component position of node 17 (blade 1, node 16), m
         51    2.212E+02                                 F               0         IfW Z-component position of node 17 (blade 1, node 16), m
         52    4.699E+01                                 F               0         IfW X-component position of node 18 (blade 1, node 17), m
         53   -1.619E+01                                 F               0         IfW Y-component position of node 18 (blade 1, node 17), m
         54    2.249E+02                                 F               0         IfW Z-component position of node 18 (blade 1, node 17), m
         55    4.803E+01                                 F               0         IfW X-component position of node 19 (blade 1, node 18), m
         56   -1.667E+01                                 F               0         IfW Y-component position of node 19 (blade 1, node 18), m
         57    2.286E+02                                 F               0         IfW Z-component position of node 19 (blade 1, node 18), m
         58    4.906E+01                                 F               0         IfW X-component position of node 20 (blade 1, node 19), m
         59   -1.714E+01                                 F               0         IfW Y-component position of node 20 (blade 1, node 19), m
         60    2.323E+02                                 F               0         IfW Z-component position of node 20 (blade 1, node 19), m
         61    5.010E+01                                 F               0         IfW X-component position of node 21 (blade 1, node 20), m
         62   -1.761E+01                                 F               0         IfW Y-component position of node 21 (blade 1, node 20), m
         63    2.360E+02                                 F               0         IfW Z-component position of node 21 (blade 1, node 20), m
         64    5.114E+01                                 F               0         IfW X-component position of node 22 (blade 1, node 21), m
         65   -1.809E+01                                 F               0         IfW Y-component position of node 22 (blade 1, node 21), m
         66    2.397E+02                                 F               0         IfW Z-component position of node 22 (blade 1, node 21), m
         67    5.217E+01                                 F               0         IfW X-component position of node 23 (blade 1, node 22), m
         68   -1.856E+01                                 F               0         IfW Y-component position of node 23 (blade 1, node 22), m
         69    2.434E+02                                 F               0         IfW Z-component position of node 23 (blade 1, node 22), m
         70    5.321E+01                                 F               0         IfW X-component position of node 24 (blade 1, node 23), m
         71   -1.903E+01                                 F               0         IfW Y-component position of node 24 (blade 1, node 23), m
         72    2.471E+02                                 F               0         IfW Z-component position of node 24 (blade 1, node 23), m
         73    5.425E+01                                 F               0         IfW X-component position of node 25 (blade 1, node 24), m
         74   -1.950E+01                                 F               0         IfW Y-component position of node 25 (blade 1, node 24), m
         75    2.508E+02                                 F               0         IfW Z-component position of node 25 (blade 1, node 24), m
         76    5.528E+01                                 F               0         IfW X-component position of node 26 (blade 1, node 25), m
         77   -1.998E+01                                 F               0         IfW Y-component position of node 26 (blade 1, node 25), m
         78    2.545E+02                                 F               0         IfW Z-component position of node 26 (blade 1, node 25), m
         79    5.632E+01                                 F               0         IfW X-component position of node 27 (blade 1, node 26), m
         80   -2.045E+01                                 F               0         IfW Y-component position of node 27 (blade 1, node 26), m
         81    2.582E+02                                 F               0         IfW Z-component position of node 27 (blade 1, node 26), m
         82    5.736E+01                                 F               0         IfW X-component position of node 28 (blade 1, node 27), m
         83   -2.092E+01                                 F               0         IfW Y-component position of node 28 (blade 1, node 27), m
         84    2.619E+02                                 F               0         IfW Z-component position of node 28 (blade 1, node 27), m
         85    5.823E+01                                 F               0         IfW X-component position of node 29 (blade 1, node 28), m
         86   -2.132E+01                                 F               0         IfW Y-component position of node 29 (blade 1, node 28), m
         87    2.650E+02                                 F               0         IfW Z-component position of node 29 (blade 1, node 28), m
         88    2.497E+01                                 F               0         IfW X-component position of node 30 (blade 2, node 1), m
         89   -1.094E+01                                 F               0         IfW Y-component position of node 30 (blade 2, node 1), m
         90    1.460E+02                                 F               0         IfW Z-component position of node 30 (blade 2, node 1), m
         91    2.478E+01                                 F               0         IfW X-component position of node 31 (blade 2, node 2), m
         92   -1.200E+01                                 F               0         IfW Y-component position of node 31 (blade 2, node 2), m
         93    1.452E+02                                 F               0         IfW Z-component position of node 31 (blade 2, node 2), m
         94    2.213E+01                                 F               0         IfW X-component position of node 32 (blade 2, node 3), m
         95   -2.649E+01                                 F               0         IfW Y-component position of node 32 (blade 2, node 3), m
         96    1.346E+02                                 F               0         IfW Z-component position of node 32 (blade 2, node 3), m
         97    2.156E+01                                 F               0         IfW X-component position of node 33 (blade 2, node 4), m
         98   -2.958E+01                                 F               0         IfW Y-component position of node 33 (blade 2, node 4), m
         99    1.324E+02                                 F               0         IfW Z-component position of node 33 (blade 2, node 4), m
        100    2.100E+01                                 F               0         IfW X-component position of node 34 (blade 2, node 5), m
        101   -3.267E+01                                 F               0         IfW Y-component position of node 34 (blade 2, node 5), m
        102    1.301E+02                                 F               0         IfW Z-component position of node 34 (blade 2, node 5), m
        103    2.043E+01                                 F               0         IfW X-component position of node 35 (blade 2, node 6), m
        104   -3.575E+01                                 F               0         IfW Y-component position of node 35 (blade 2, node 6), m
        105    1.279E+02                                 F               0         IfW Z-component position of node 35 (blade 2, node 6), m
        106    1.987E+01                                 F               0         IfW X-component position of node 36 (blade 2, node 7), m
        107   -3.884E+01                                 F               0         IfW Y-component position of node 36 (blade 2, node 7), m
        108    1.256E+02                                 F               0         IfW Z-component position of node 36 (blade 2, node 7), m
        109    1.931E+01                                 F               0         IfW X-component position of node 37 (blade 2, node 8), m
        110   -4.193E+01                                 F               0         IfW Y-component position of node 37 (blade 2, node 8), m
        111    1.233E+02                                 F               0         IfW Z-component position of node 37 (blade 2, node 8), m
        112    1.874E+01                                 F               0         IfW X-component position of node 38 (blade 2, node 9), m
        113   -4.502E+01                                 F               0         IfW Y-component position of node 38 (blade 2, node 9), m
        114    1.211E+02                                 F               0         IfW Z-component position of node 38 (blade 2, node 9), m
        115    1.818E+01                                 F               0         IfW X-component position of node 39 (blade 2, node 10), m
        116   -4.810E+01                                 F               0         IfW Y-component position of node 39 (blade 2, node 10), m
        117    1.188E+02                                 F               0         IfW Z-component position of node 39 (blade 2, node 10), m
        118    1.761E+01                                 F               0         IfW X-component position of node 40 (blade 2, node 11), m
        119   -5.119E+01                                 F               0         IfW Y-component position of node 40 (blade 2, node 11), m
        120    1.165E+02                                 F               0         IfW Z-component position of node 40 (blade 2, node 11), m
        121    1.705E+01                                 F               0         IfW X-component position of node 41 (blade 2, node 12), m
        122   -5.428E+01                                 F               0         IfW Y-component position of node 41 (blade 2, node 12), m
        123    1.143E+02                                 F               0         IfW Z-component position of node 41 (blade 2, node 12), m
        124    1.648E+01                                 F               0         IfW X-component position of node 42 (blade 2, node 13), m
        125   -5.737E+01                                 F               0         IfW Y-component position of node 42 (blade 2, node 13), m
        126    1.120E+02                                 F               0         IfW Z-component position of node 42 (blade 2, node 13), m
        127    1.592E+01                                 F               0         IfW X-component position of node 43 (blade 2, node 14), m
        128   -6.045E+01                                 F               0         IfW Y-component position of node 43 (blade 2, node 14), m
        129    1.098E+02                                 F               0         IfW Z-component position of node 43 (blade 2, node 14), m
        130    1.536E+01                                 F               0         IfW X-component position of node 44 (blade 2, node 15), m
        131   -6.354E+01                                 F               0         IfW Y-component position of node 44 (blade 2, node 15), m
        132    1.075E+02                                 F               0         IfW Z-component position of node 44 (blade 2, node 15), m
        133    1.479E+01                                 F               0         IfW X-component position of node 45 (blade 2, node 16), m
        134   -6.663E+01                                 F               0         IfW Y-component position of node 45 (blade 2, node 16), m
        135    1.052E+02                                 F               0         IfW Z-component position of node 45 (blade 2, node 16), m
        136    1.423E+01                                 F               0         IfW X-component position of node 46 (blade 2, node 17), m
        137   -6.971E+01                                 F               0         IfW Y-component position of node 46 (blade 2, node 17), m
        138    1.030E+02                                 F               0         IfW Z-component position of node 46 (blade 2, node 17), m
        139    1.366E+01                                 F               0         IfW X-component position of node 47 (blade 2, node 18), m
        140   -7.280E+01                                 F               0         IfW Y-component position of node 47 (blade 2, node 18), m
        141    1.007E+02                                 F               0         IfW Z-component position of node 47 (blade 2, node 18), m
        142    1.310E+01                                 F               0         IfW X-component position of node 48 (blade 2, node 19), m
        143   -7.589E+01                                 F               0         IfW Y-component position of node 48 (blade 2, node 19), m
        144    9.847E+01                                 F               0         IfW Z-component position of node 48 (blade 2, node 19), m