
Linearized model: Predictions were generated on 19-Dec-2023 at 09:27:32 using OpenFAST, compiled as a 64-bit application using single precision at commit v3.5.1
 linked with  NWTC Subroutine Library; ElastoDyn; InflowWind; AeroDyn; ServoDyn; HydroDyn; MoorDyn (v2.0.0, 2023-09-18)

Description from the FAST input file: CCT-9 Campign 4 model. Input files to be run with OpenFAST 3.5.0. GitHub branch from Lu Wang (https://github.com/luwang00/openfast/tree/dev) compiled on March 7, 2023.

Simulation information:
   Simulation time:                  1002.7500 s
   Rotor Speed:                         1.0412 rad/s
   Azimuth:                             1.7073 rad
   Wind Speed:                         12.0000 m/s
   Number of continuous states:         0
   Number of discrete states:           0
   Number of constraint states:         0
   Number of inputs:                   54
   Number of outputs:                   0
   Jacobians included in this file?    No

Order of inputs:
     Column   Operating Point                     Rotating Frame? Derivative Order Description
   ---------- ---------------                     --------------- ---------------- -----------
          1    1.028E+01                                 F               0         CoupledKinematics X translation displacement, node 1, m
          2    8.345E-01                                 F               0         CoupledKinematics Y translation displacement, node 1, m
          3   -6.548E+00                                 F               0         CoupledKinematics Z translation displacement, node 1, m
          4    9.225E+00                                 F               0         CoupledKinematics X translation displacement, node 2, m
          5    7.423E-01                                 F               0         CoupledKinematics Y translation displacement, node 2, m
          6   -2.499E+00                                 F               0         CoupledKinematics Z translation displacement, node 2, m
          7    1.081E+01                                 F               0         CoupledKinematics X translation displacement, node 3, m
          8   -6.388E-01                                 F               0         CoupledKinematics Y translation displacement, node 3, m
          9    9.048E+00                                 F               0         CoupledKinematics Z translation displacement, node 3, m
         10    9.881E-01,  1.606E-02, -1.527E-01         F               0         CoupledKinematics X orientation angle, node 1, rad
         11   -1.033E-02,  9.992E-01,  3.827E-02         F               0         CoupledKinematics Y orientation angle, node 1, rad
         12    1.532E-01, -3.624E-02,  9.875E-01         F               0         CoupledKinematics Z orientation angle, node 1, rad
         13    9.881E-01,  1.606E-02, -1.527E-01         F               0         CoupledKinematics X orientation angle, node 2, rad
         14   -1.033E-02,  9.992E-01,  3.827E-02         F               0         CoupledKinematics Y orientation angle, node 2, rad
         15    1.532E-01, -3.624E-02,  9.875E-01         F               0         CoupledKinematics Z orientation angle, node 2, rad
         16    9.881E-01,  1.606E-02, -1.527E-01         F               0         CoupledKinematics X orientation angle, node 3, rad
         17   -1.033E-02,  9.992E-01,  3.827E-02         F               0         CoupledKinematics Y orientation angle, node 3, rad
         18    1.532E-01, -3.624E-02,  9.875E-01         F               0         CoupledKinematics Z orientation angle, node 3, rad
         19   -1.449E-02                                 F               0         CoupledKinematics X translation velocity, node 1, m/s
         20    3.510E-03                                 F               0         CoupledKinematics Y translation velocity, node 1, m/s
         21   -2.103E-02                                 F               0         CoupledKinematics Z translation velocity, node 1, m/s
         22    1.302E-02                                 F               0         CoupledKinematics X translation velocity, node 2, m/s
         23    2.017E-03                                 F               0         CoupledKinematics Y translation velocity, node 2, m/s
         24    2.884E-02                                 F               0         CoupledKinematics Z translation velocity, node 2, m/s
         25   -4.530E-04                                 F               0         CoupledKinematics X translation velocity, node 3, m/s
         26    1.950E-02                                 F               0         CoupledKinematics Y translation velocity, node 3, m/s
         27    7.488E-03                                 F               0         CoupledKinematics Z translation velocity, node 3, m/s
         28    4.838E-04                                 F               0         CoupledKinematics X rotation velocity, node 1, rad/s
         29    4.866E-05                                 F               0         CoupledKinematics Y rotation velocity, node 1, rad/s
         30   -2.654E-04                                 F               0         CoupledKinematics Z rotation velocity, node 1, rad/s
         31    4.838E-04                                 F               0         CoupledKinematics X rotation velocity, node 2, rad/s
         32    4.866E-05                                 F               0         CoupledKinematics Y rotation velocity, node 2, rad/s
         33   -2.654E-04                                 F               0         CoupledKinematics Z rotation velocity, node 2, rad/s
         34    4.838E-04                                 F               0         CoupledKinematics X rotation velocity, node 3, rad/s
         35    4.866E-05                                 F               0         CoupledKinematics Y rotation velocity, node 3, rad/s
         36   -2.654E-04                                 F               0         CoupledKinematics Z rotation velocity, node 3, rad/s
         37   -1.786E-03                                 F               0         CoupledKinematics X translation acceleration, node 1, m/s^2
         38    2.768E-03                                 F               0         CoupledKinematics Y translation acceleration, node 1, m/s^2
         39   -8.594E-03                                 F               0         CoupledKinematics Z translation acceleration, node 1, m/s^2
         40    1.775E-03                                 F               0         CoupledKinematics X translation acceleration, node 2, m/s^2
         41    1.984E-03                                 F               0         CoupledKinematics Y translation acceleration, node 2, m/s^2
         42    1.208E-02                                 F               0         CoupledKinematics Z translation acceleration, node 2, m/s^2
         43   -2.533E-04                                 F               0         CoupledKinematics X translation acceleration, node 3, m/s^2
         44    2.731E-03                                 F               0         CoupledKinematics Y translation acceleration, node 3, m/s^2
         45    1.574E-04                                 F               0         CoupledKinematics Z translation acceleration, node 3, m/s^2
         46    2.012E-04                                 F               0         CoupledKinematics X rotation acceleration, node 1, rad/s^2
         47   -1.490E-05                                 F               0         CoupledKinematics Y rotation acceleration, node 1, rad/s^2
         48   -3.516E-05                                 F               0         CoupledKinematics Z rotation acceleration, node 1, rad/s^2
         49    2.012E-04                                 F               0         CoupledKinematics X rotation acceleration, node 2, rad/s^2
         50   -1.490E-05                                 F               0         CoupledKinematics Y rotation acceleration, node 2, rad/s^2
         51   -3.516E-05                                 F               0         CoupledKinematics Z rotation acceleration, node 2, rad/s^2
         52    2.012E-04                                 F               0         CoupledKinematics X rotation acceleration, node 3, rad/s^2
         53   -1.490E-05                                 F               0         CoupledKinematics Y rotation acceleration, node 3, rad/s^2
         54   -3.516E-05                                 F               0         CoupledKinematics Z rotation acceleration, node 3, rad/s^2


Linearized state matrices:

