
Linearized model: Predictions were generated on 19-Dec-2023 at 09:27:32 using OpenFAST, compiled as a 64-bit application using single precision at commit v3.5.1
 linked with  NWTC Subroutine Library; ElastoDyn; InflowWind; AeroDyn; ServoDyn; HydroDyn; MoorDyn (v2.0.0, 2023-09-18)

Description from the FAST input file: CCT-9 Campign 4 model. Input files to be run with OpenFAST 3.5.0. GitHub branch from Lu Wang (https://github.com/luwang00/openfast/tree/dev) compiled on March 7, 2023.

Simulation information:
   Simulation time:                  1003.0000 s
   Rotor Speed:                         1.0412 rad/s
   Azimuth:                             1.9676 rad
   Wind Speed:                         12.0000 m/s
   Number of continuous states:        22
   Number of discrete states:           0
   Number of constraint states:         0
   Number of inputs:                 1890
   Number of outputs:                  38
   Jacobians included in this file?    No

Order of continuous states:
   Row/Column Operating Point                     Rotating Frame? Derivative Order Description
   ---------- ---------------                     --------------- ---------------- -----------
          1    1.230E+01                                 F               2         Platform horizontal surge translation DOF (internal DOF index = DOF_Sg), m
          2   -2.049E-01                                 F               2         Platform horizontal sway translation DOF (internal DOF index = DOF_Sw), m
          3   -2.029E-01                                 F               2         Platform vertical heave translation DOF (internal DOF index = DOF_Hv), m
          4    3.786E-02                                 F               2         Platform roll tilt rotation DOF (internal DOF index = DOF_R), rad
          5    1.549E-01                                 F               2         Platform pitch tilt rotation DOF (internal DOF index = DOF_P), rad
          6    1.330E-02                                 F               2         Platform yaw rotation DOF (internal DOF index = DOF_Y), rad
          7    1.076E+00                                 F               2         1st tower fore-aft bending mode DOF (internal DOF index = DOF_TFA1), m
          8    1.377E-01                                 F               2         1st tower side-to-side bending mode DOF (internal DOF index = DOF_TSS1), m
          9    1.601E-03                                 F               2         2nd tower fore-aft bending mode DOF (internal DOF index = DOF_TFA2), m
         10    6.238E-05                                 F               2         2nd tower side-to-side bending mode DOF (internal DOF index = DOF_TSS2), m
         11    3.968E-01                                 F               2         Variable speed generator DOF (internal DOF index = DOF_GeAz), rad
         12   -1.534E-04                                 F               2         First time derivative of Platform horizontal surge translation DOF (internal DOF index = DOF_Sg), m/s
         13    7.450E-04                                 F               2         First time derivative of Platform horizontal sway translation DOF (internal DOF index = DOF_Sw), m/s
         14    4.998E-03                                 F               2         First time derivative of Platform vertical heave translation DOF (internal DOF index = DOF_Hv), m/s
         15    5.342E-04                                 F               2         First time derivative of Platform roll tilt rotation DOF (internal DOF index = DOF_R), rad/s
         16    4.572E-05                                 F               2         First time derivative of Platform pitch tilt rotation DOF (internal DOF index = DOF_P), rad/s
         17   -2.733E-04                                 F               2         First time derivative of Platform yaw rotation DOF (internal DOF index = DOF_Y), rad/s
         18    1.641E-03                                 F               2         First time derivative of 1st tower fore-aft bending mode DOF (internal DOF index = DOF_TFA1), m/s
         19    4.310E-03                                 F               2         First time derivative of 1st tower side-to-side bending mode DOF (internal DOF index = DOF_TSS1), m/s
         20    1.212E-05                                 F               2         First time derivative of 2nd tower fore-aft bending mode DOF (internal DOF index = DOF_TFA2), m/s
         21   -1.433E-06                                 F               2         First time derivative of 2nd tower side-to-side bending mode DOF (internal DOF index = DOF_TSS2), m/s
         22    1.041E+00                                 F               2         First time derivative of Variable speed generator DOF (internal DOF index = DOF_GeAz), rad/s

Order of continuous state derivatives:
   Row/Column Operating Point                     Rotating Frame? Derivative Order Description
   ---------- ---------------                     --------------- ---------------- -----------
          1   -1.534E-04                                 F               2         First time derivative of Platform horizontal surge translation DOF (internal DOF index = DOF_Sg), m/s
          2    7.450E-04                                 F               2         First time derivative of Platform horizontal sway translation DOF (internal DOF index = DOF_Sw), m/s
          3    4.998E-03                                 F               2         First time derivative of Platform vertical heave translation DOF (internal DOF index = DOF_Hv), m/s
          4    5.342E-04                                 F               2         First time derivative of Platform roll tilt rotation DOF (internal DOF index = DOF_R), rad/s
          5    4.572E-05                                 F               2         First time derivative of Platform pitch tilt rotation DOF (internal DOF index = DOF_P), rad/s
          6   -2.733E-04                                 F               2         First time derivative of Platform yaw rotation DOF (internal DOF index = DOF_Y), rad/s
          7    1.641E-03                                 F               2         First time derivative of 1st tower fore-aft bending mode DOF (internal DOF index = DOF_TFA1), m/s
          8    4.310E-03                                 F               2         First time derivative of 1st tower side-to-side bending mode DOF (internal DOF index = DOF_TSS1), m/s
          9    1.212E-05                                 F               2         First time derivative of 2nd tower fore-aft bending mode DOF (internal DOF index = DOF_TFA2), m/s
         10   -1.433E-06                                 F               2         First time derivative of 2nd tower side-to-side bending mode DOF (internal DOF index = DOF_TSS2), m/s
         11    1.041E+00                                 F               2         First time derivative of Variable speed generator DOF (internal DOF index = DOF_GeAz), rad/s
         12   -1.646E-04                                 F               2         First time derivative of First time derivative of Platform horizontal surge translation DOF (internal DOF index = DOF_Sg), m/s/s
         13   -5.186E-04                                 F               2         First time derivative of First time derivative of Platform horizontal sway translation DOF (internal DOF index = DOF_Sw), m/s/s
         14    9.564E-04                                 F               2         First time derivative of First time derivative of Platform vertical heave translation DOF (internal DOF index = DOF_Hv), m/s/s
         15    2.016E-04                                 F               2         First time derivative of First time derivative of Platform roll tilt rotation DOF (internal DOF index = DOF_R), rad/s/s
         16   -7.068E-06                                 F               2         First time derivative of First time derivative of Platform pitch tilt rotation DOF (internal DOF index = DOF_P), rad/s/s
         17   -2.802E-05                                 F               2         First time derivative of First time derivative of Platform yaw rotation DOF (internal DOF index = DOF_Y), rad/s/s
         18    2.136E-03                                 F               2         First time derivative of First time derivative of 1st tower fore-aft bending mode DOF (internal DOF index = DOF_TFA1), m/s/s
         19    1.046E-03                                 F               2         First time derivative of First time derivative of 1st tower side-to-side bending mode DOF (internal DOF index = DOF_TSS1), m/s/s
         20    2.605E-05                                 F               2         First time derivative of First time derivative of 2nd tower fore-aft bending mode DOF (internal DOF index = DOF_TFA2), m/s/s
         21    7.560E-06                                 F               2         First time derivative of First time derivative of 2nd tower side-to-side bending mode DOF (internal DOF index = DOF_TSS2), m/s/s
         22   -8.713E-05                                 F               2         First time derivative of First time derivative of Variable speed generator DOF (internal DOF index = DOF_GeAz), rad/s/s

Order of inputs:
     Column   Operating Point                     Rotating Frame? Derivative Order Description
   ---------- ---------------                     --------------- ---------------- -----------
          1    1.612E+02                                 F               0         Blade 1 X force, node 1, N
          2   -8.437E+01                                 F               0         Blade 1 Y force, node 1, N
          3    1.500E+02                                 F               0         Blade 1 Z force, node 1, N
          4    5.392E+02                                 F               0         Blade 1 X force, node 2, N
          5   -1.364E+02                                 F               0         Blade 1 Y force, node 2, N
          6    1.783E+02                                 F               0         Blade 1 Z force, node 2, N
          7    6.204E+02                                 F               0         Blade 1 X force, node 3, N
          8   -9.412E+01                                 F               0         Blade 1 Y force, node 3, N
          9    6.572E+01                                 F               0         Blade 1 Z force, node 3, N
         10    7.610E+02                                 F               0         Blade 1 X force, node 4, N
         11   -7.017E+01                                 F               0         Blade 1 Y force, node 4, N
         12   -1.985E+01                                 F               0         Blade 1 Z force, node 4, N
         13    9.015E+02                                 F               0         Blade 1 X force, node 5, N
         14   -4.623E+01                                 F               0         Blade 1 Y force, node 5, N
         15   -1.054E+02                                 F               0         Blade 1 Z force, node 5, N
         16    1.042E+03                                 F               0         Blade 1 X force, node 6, N
         17   -2.228E+01                                 F               0         Blade 1 Y force, node 6, N
         18   -1.910E+02                                 F               0         Blade 1 Z force, node 6, N
         19    1.182E+03                                 F               0         Blade 1 X force, node 7, N
         20    1.670E+00                                 F               0         Blade 1 Y force, node 7, N
         21   -2.766E+02                                 F               0         Blade 1 Z force, node 7, N
         22    1.323E+03                                 F               0         Blade 1 X force, node 8, N
         23    2.562E+01                                 F               0         Blade 1 Y force, node 8, N
         24   -3.621E+02                                 F               0         Blade 1 Z force, node 8, N
         25    1.464E+03                                 F               0         Blade 1 X force, node 9, N
         26    4.957E+01                                 F               0         Blade 1 Y force, node 9, N
         27   -4.477E+02                                 F               0         Blade 1 Z force, node 9, N
         28    1.604E+03                                 F               0         Blade 1 X force, node 10, N
         29    7.352E+01                                 F               0         Blade 1 Y force, node 10, N
         30   -5.333E+02                                 F               0         Blade 1 Z force, node 10, N
         31    1.745E+03                                 F               0         Blade 1 X force, node 11, N
         32    9.746E+01                                 F               0         Blade 1 Y force, node 11, N
         33   -6.189E+02                                 F               0         Blade 1 Z force, node 11, N
         34    1.885E+03                                 F               0         Blade 1 X force, node 12, N
         35    1.214E+02                                 F               0         Blade 1 Y force, node 12, N
         36   -7.044E+02                                 F               0         Blade 1 Z force, node 12, N
         37    2.026E+03                                 F               0         Blade 1 X force, node 13, N
         38    1.454E+02                                 F               0         Blade 1 Y force, node 13, N
         39   -7.900E+02                                 F               0         Blade 1 Z force, node 13, N
         40    2.166E+03                                 F               0         Blade 1 X force, node 14, N
         41    1.693E+02                                 F               0         Blade 1 Y force, node 14, N
         42   -8.756E+02                                 F               0         Blade 1 Z force, node 14, N
         43    2.307E+03                                 F               0         Blade 1 X force, node 15, N
         44    1.933E+02                                 F               0         Blade 1 Y force, node 15, N
         45   -9.612E+02                                 F               0         Blade 1 Z force, node 15, N
         46    2.447E+03                                 F               0         Blade 1 X force, node 16, N
         47    2.172E+02                                 F               0         Blade 1 Y force, node 16, N
         48   -1.047E+03                                 F               0         Blade 1 Z force, node 16, N
         49    3.005E+03                                 F               0         Blade 1 X force, node 17, N
         50    2.791E+02                                 F               0         Blade 1 Y force, node 17, N
         51   -1.313E+03                                 F               0         Blade 1 Z force, node 17, N
         52    2.330E+03                                 F               0         Blade 1 X force, node 18, N
         53    2.124E+02                                 F               0         Blade 1 Y force, node 18, N
         54   -1.009E+03                                 F               0         Blade 1 Z force, node 18, N
         55    2.913E+03                                 F               0         Blade 1 X force, node 19, N
         56    2.555E+02                                 F               0         Blade 1 Y force, node 19, N
         57   -1.239E+03                                 F               0         Blade 1 Z force, node 19, N
         58    2.526E+03                                 F               0         Blade 1 X force, node 20, N
         59    2.139E+02                                 F               0         Blade 1 Y force, node 20, N
         60   -1.058E+03                                 F               0         Blade 1 Z force, node 20, N
         61    3.801E+03                                 F               0         Blade 1 X force, node 21, N
         62    3.087E+02                                 F               0         Blade 1 Y force, node 21, N
         63   -1.562E+03                                 F               0         Blade 1 Z force, node 21, N
         64    3.414E+03                                 F               0         Blade 1 X force, node 22, N
         65    2.654E+02                                 F               0         Blade 1 Y force, node 22, N
         66   -1.377E+03                                 F               0         Blade 1 Z force, node 22, N
         67    3.559E+03                                 F               0         Blade 1 X force, node 23, N
         68    2.662E+02                                 F               0         Blade 1 Y force, node 23, N
         69   -1.412E+03                                 F               0         Blade 1 Z force, node 23, N
         70    3.768E+03                                 F               0         Blade 1 X force, node 24, N
         71    2.715E+02                                 F               0         Blade 1 Y force, node 24, N
         72   -1.472E+03                                 F               0         Blade 1 Z force, node 24, N
         73    3.911E+03                                 F               0         Blade 1 X force, node 25, N
         74    2.712E+02                                 F               0         Blade 1 Y force, node 25, N
         75   -1.504E+03                                 F               0         Blade 1 Z force, node 25, N
         76    4.076E+03                                 F               0         Blade 1 X force, node 26, N
         77    2.722E+02                                 F               0         Blade 1 Y force, node 26, N
         78   -1.545E+03                                 F               0         Blade 1 Z force, node 26, N
         79    4.941E+03                                 F               0         Blade 1 X force, node 27, N
         80    3.177E+02                                 F               0         Blade 1 Y force, node 27, N
         81   -1.845E+03                                 F               0         Blade 1 Z force, node 27, N
         82    3.703E+03                                 F               0         Blade 1 X force, node 28, N
         83    2.292E+02                                 F               0         Blade 1 Y force, node 28, N
         84   -1.363E+03                                 F               0         Blade 1 Z force, node 28, N
         85    4.568E+03                                 F               0         Blade 1 X force, node 29, N
         86    2.740E+02                                 F               0         Blade 1 Y force, node 29, N
         87   -1.662E+03                                 F               0         Blade 1 Z force, node 29, N
         88    3.918E+03                                 F               0         Blade 1 X force, node 30, N
         89    2.279E+02                                 F               0         Blade 1 Y force, node 30, N
         90   -1.410E+03                                 F               0         Blade 1 Z force, node 30, N
         91    5.711E+03                                 F               0         Blade 1 X force, node 31, N
         92    3.205E+02                                 F               0         Blade 1 Y force, node 31, N
         93   -2.029E+03                                 F               0         Blade 1 Z force, node 31, N
         94    5.059E+03                                 F               0         Blade 1 X force, node 32, N
         95    2.738E+02                                 F               0         Blade 1 Y force, node 32, N
         96   -1.775E+03                                 F               0         Blade 1 Z force, node 32, N
         97    5.220E+03                                 F               0         Blade 1 X force, node 33, N
         98    2.733E+02                                 F               0         Blade 1 Y force, node 33, N
         99   -1.811E+03                                 F               0         Blade 1 Z force, node 33, N
        100    5.384E+03                                 F               0         Blade 1 X force, node 34, N
        101    2.728E+02                                 F               0         Blade 1 Y force, node 34, N
        102   -1.848E+03                                 F               0         Blade 1 Z force, node 34, N
        103    5.546E+03                                 F               0         Blade 1 X force, node 35, N
        104    2.720E+02                                 F               0         Blade 1 Y force, node 35, N
        105   -1.883E+03                                 F               0         Blade 1 Z force, node 35, N
        106    5.707E+03                                 F               0         Blade 1 X force, node 36, N
        107    2.711E+02                                 F               0         Blade 1 Y force, node 36, N
        108   -1.919E+03                                 F               0         Blade 1 Z force, node 36, N
        109    6.869E+03                                 F               0         Blade 1 X force, node 37, N
        110    3.155E+02                                 F               0         Blade 1 Y force, node 37, N
        111   -2.285E+03                                 F               0         Blade 1 Z force, node 37, N
        112    5.031E+03                                 F               0         Blade 1 X force, node 38, N
        113    2.237E+02                                 F               0         Blade 1 Y force, node 38, N
        114   -1.657E+03                                 F               0         Blade 1 Z force, node 38, N
        115    6.194E+03                                 F               0         Blade 1 X force, node 39, N
        116    2.680E+02                                 F               0         Blade 1 Y force, node 39, N
        117   -2.024E+03                                 F               0         Blade 1 Z force, node 39, N
        118    5.304E+03                                 F               0         Blade 1 X force, node 40, N
        119    2.234E+02                                 F               0         Blade 1 Y force, node 40, N
        120   -1.720E+03                                 F               0         Blade 1 Z force, node 40, N
        121    7.570E+03                                 F               0         Blade 1 X force, node 41, N
        122    3.089E+02                                 F               0         Blade 1 Y force, node 41, N
        123   -2.433E+03                                 F               0         Blade 1 Z force, node 41, N
        124    6.678E+03                                 F               0         Blade 1 X force, node 42, N
        125    2.639E+02                                 F               0         Blade 1 Y force, node 42, N
        126   -2.127E+03                                 F               0         Blade 1 Z force, node 42, N
        127    6.837E+03                                 F               0         Blade 1 X force, node 43, N
        128    2.623E+02                                 F               0         Blade 1 Y force, node 43, N
        129   -2.160E+03                                 F               0         Blade 1 Z force, node 43, N
        130    7.034E+03                                 F               0         Blade 1 X force, node 44, N
        131    2.620E+02                                 F               0         Blade 1 Y force, node 44, N
        132   -2.204E+03                                 F               0         Blade 1 Z force, node 44, N
        133    7.119E+03                                 F               0         Blade 1 X force, node 45, N
        134    2.574E+02                                 F               0         Blade 1 Y force, node 45, N
        135   -2.214E+03                                 F               0         Blade 1 Z force, node 45, N
        136    7.315E+03                                 F               0         Blade 1 X force, node 46, N
        137    2.570E+02                                 F               0         Blade 1 Y force, node 46, N
        138   -2.258E+03                                 F               0         Blade 1 Z force, node 46, N
        139    8.787E+03                                 F               0         Blade 1 X force, node 47, N
        140    2.994E+02                                 F               0         Blade 1 Y force, node 47, N
        141   -2.692E+03                                 F               0         Blade 1 Z force, node 47, N
        142    6.319E+03                                 F               0         Blade 1 X force, node 48, N
        143    2.089E+02                                 F               0         Blade 1 Y force, node 48, N
        144   -1.922E+03                                 F               0         Blade 1 Z force, node 48, N
        145    7.789E+03                                 F               0         Blade 1 X force, node 49, N
        146    2.511E+02                                 F               0         Blade 1 Y force, node 49, N
        147   -2.355E+03                                 F               0         Blade 1 Z force, node 49, N
        148    6.681E+03                                 F               0         Blade 1 X force, node 50, N
        149    2.099E+02                                 F               0         Blade 1 Y force, node 50, N
        150   -2.008E+03                                 F               0         Blade 1 Z force, node 50, N
        151    9.371E+03                                 F               0         Blade 1 X force, node 51, N
        152    2.859E+02                                 F               0         Blade 1 Y force, node 51, N
        153   -2.797E+03                                 F               0         Blade 1 Z force, node 51, N
        154    8.265E+03                                 F               0         Blade 1 X force, node 52, N
        155    2.448E+02                                 F               0         Blade 1 Y force, node 52, N
        156   -2.450E+03                                 F               0         Blade 1 Z force, node 52, N
        157    8.424E+03                                 F               0         Blade 1 X force, node 53, N
        158    2.427E+02                                 F               0         Blade 1 Y force, node 53, N
        159   -2.482E+03                                 F               0         Blade 1 Z force, node 53, N
        160    8.678E+03                                 F               0         Blade 1 X force, node 54, N
        161    2.432E+02                                 F               0         Blade 1 Y force, node 54, N
        162   -2.542E+03                                 F               0         Blade 1 Z force, node 54, N
        163    8.647E+03                                 F               0         Blade 1 X force, node 55, N
        164    2.357E+02                                 F               0         Blade 1 Y force, node 55, N
        165   -2.518E+03                                 F               0         Blade 1 Z force, node 55, N
        166    8.900E+03                                 F               0         Blade 1 X force, node 56, N
        167    2.361E+02                                 F               0         Blade 1 Y force, node 56, N
        168   -2.578E+03                                 F               0         Blade 1 Z force, node 56, N
        169    1.070E+04                                 F               0         Blade 1 X force, node 57, N
        170    2.757E+02                                 F               0         Blade 1 Y force, node 57, N
        171   -3.080E+03                                 F               0         Blade 1 Z force, node 57, N
        172    7.575E+03                                 F               0         Blade 1 X force, node 58, N
        173    1.897E+02                                 F               0         Blade 1 Y force, node 58, N
        174   -2.169E+03                                 F               0         Blade 1 Z force, node 58, N
        175    9.374E+03                                 F               0         Blade 1 X force, node 59, N
        176    2.291E+02                                 F               0         Blade 1 Y force, node 59, N
        177   -2.672E+03                                 F               0         Blade 1 Z force, node 59, N
        178    8.071E+03                                 F               0         Blade 1 X force, node 60, N
        179    1.926E+02                                 F               0         Blade 1 Y force, node 60, N
        180   -2.290E+03                                 F               0         Blade 1 Z force, node 60, N
        181    1.115E+04                                 F               0         Blade 1 X force, node 61, N
        182    2.586E+02                                 F               0         Blade 1 Y force, node 61, N
        183   -3.147E+03                                 F               0         Blade 1 Z force, node 61, N
        184    9.843E+03                                 F               0         Blade 1 X force, node 62, N