
Linearized model: Predictions were generated on 19-Dec-2023 at 09:27:32 using OpenFAST, compiled as a 64-bit application using single precision at commit v3.5.1
 linked with  NWTC Subroutine Library; ElastoDyn; InflowWind; AeroDyn; ServoDyn; HydroDyn; MoorDyn (v2.0.0, 2023-09-18)

Description from the FAST input file: CCT-9 Campign 4 model. Input files to be run with OpenFAST 3.5.0. GitHub branch from Lu Wang (https://github.com/luwang00/openfast/tree/dev) compiled on March 7, 2023.

Simulation information:
   Simulation time:                  1004.2250 s
   Rotor Speed:                         1.0411 rad/s
   Azimuth:                             3.2430 rad
   Wind Speed:                         12.0000 m/s
   Number of continuous states:        22
   Number of discrete states:           0
   Number of constraint states:         0
   Number of inputs:                 1890
   Number of outputs:                  38
   Jacobians included in this file?    No

Order of continuous states:
   Row/Column Operating Point                     Rotating Frame? Derivative Order Description
   ---------- ---------------                     --------------- ---------------- -----------
          1    1.230E+01                                 F               2         Platform horizontal surge translation DOF (internal DOF index = DOF_Sg), m
          2   -2.044E-01                                 F               2         Platform horizontal sway translation DOF (internal DOF index = DOF_Sw), m
          3   -1.963E-01                                 F               2         Platform vertical heave translation DOF (internal DOF index = DOF_Hv), m
          4    3.866E-02                                 F               2         Platform roll tilt rotation DOF (internal DOF index = DOF_R), rad
          5    1.550E-01                                 F               2         Platform pitch tilt rotation DOF (internal DOF index = DOF_P), rad
          6    1.294E-02                                 F               2         Platform yaw rotation DOF (internal DOF index = DOF_Y), rad
          7    1.076E+00                                 F               2         1st tower fore-aft bending mode DOF (internal DOF index = DOF_TFA1), m
          8    1.433E-01                                 F               2         1st tower side-to-side bending mode DOF (internal DOF index = DOF_TSS1), m
          9    1.608E-03                                 F               2         2nd tower fore-aft bending mode DOF (internal DOF index = DOF_TFA2), m
         10    6.450E-05                                 F               2         2nd tower side-to-side bending mode DOF (internal DOF index = DOF_TSS2), m
         11    1.672E+00                                 F               2         Variable speed generator DOF (internal DOF index = DOF_GeAz), rad
         12   -2.904E-05                                 F               2         First time derivative of Platform horizontal surge translation DOF (internal DOF index = DOF_Sg), m/s
         13   -8.851E-05                                 F               2         First time derivative of Platform horizontal sway translation DOF (internal DOF index = DOF_Sw), m/s
         14    5.517E-03                                 F               2         First time derivative of Platform vertical heave translation DOF (internal DOF index = DOF_Hv), m/s
         15    7.730E-04                                 F               2         First time derivative of Platform roll tilt rotation DOF (internal DOF index = DOF_R), rad/s
         16    5.268E-05                                 F               2         First time derivative of Platform pitch tilt rotation DOF (internal DOF index = DOF_P), rad/s
         17   -3.025E-04                                 F               2         First time derivative of Platform yaw rotation DOF (internal DOF index = DOF_Y), rad/s
         18   -2.030E-03                                 F               2         First time derivative of 1st tower fore-aft bending mode DOF (internal DOF index = DOF_TFA1), m/s
         19    4.051E-03                                 F               2         First time derivative of 1st tower side-to-side bending mode DOF (internal DOF index = DOF_TSS1), m/s
         20   -6.472E-06                                 F               2         First time derivative of 2nd tower fore-aft bending mode DOF (internal DOF index = DOF_TFA2), m/s
         21    2.337E-06                                 F               2         First time derivative of 2nd tower side-to-side bending mode DOF (internal DOF index = DOF_TSS2), m/s
         22    1.041E+00                                 F               2         First time derivative of Variable speed generator DOF (internal DOF index = DOF_GeAz), rad/s

Order of continuous state derivatives:
   Row/Column Operating Point                     Rotating Frame? Derivative Order Description
   ---------- ---------------                     --------------- ---------------- -----------
          1   -2.904E-05                                 F               2         First time derivative of Platform horizontal surge translation DOF (internal DOF index = DOF_Sg), m/s
          2   -8.851E-05                                 F               2         First time derivative of Platform horizontal sway translation DOF (internal DOF index = DOF_Sw), m/s
          3    5.517E-03                                 F               2         First time derivative of Platform vertical heave translation DOF (internal DOF index = DOF_Hv), m/s
          4    7.730E-04                                 F               2         First time derivative of Platform roll tilt rotation DOF (internal DOF index = DOF_R), rad/s
          5    5.268E-05                                 F               2         First time derivative of Platform pitch tilt rotation DOF (internal DOF index = DOF_P), rad/s
          6   -3.025E-04                                 F               2         First time derivative of Platform yaw rotation DOF (internal DOF index = DOF_Y), rad/s
          7   -2.030E-03                                 F               2         First time derivative of 1st tower fore-aft bending mode DOF (internal DOF index = DOF_TFA1), m/s
          8    4.051E-03                                 F               2         First time derivative of 1st tower side-to-side bending mode DOF (internal DOF index = DOF_TSS1), m/s
          9   -6.472E-06                                 F               2         First time derivative of 2nd tower fore-aft bending mode DOF (internal DOF index = DOF_TFA2), m/s
         10    2.337E-06                                 F               2         First time derivative of 2nd tower side-to-side bending mode DOF (internal DOF index = DOF_TSS2), m/s
         11    1.041E+00                                 F               2         First time derivative of Variable speed generator DOF (internal DOF index = DOF_GeAz), rad/s
         12   -2.840E-04                                 F               2         First time derivative of First time derivative of Platform horizontal surge translation DOF (internal DOF index = DOF_Sg), m/s/s
         13   -7.104E-04                                 F               2         First time derivative of First time derivative of Platform horizontal sway translation DOF (internal DOF index = DOF_Sw), m/s/s
         14   -7.400E-05                                 F               2         First time derivative of First time derivative of Platform vertical heave translation DOF (internal DOF index = DOF_Hv), m/s/s
         15    1.774E-04                                 F               2         First time derivative of First time derivative of Platform roll tilt rotation DOF (internal DOF index = DOF_R), rad/s/s
         16   -1.660E-05                                 F               2         First time derivative of First time derivative of Platform pitch tilt rotation DOF (internal DOF index = DOF_P), rad/s/s
         17   -2.347E-05                                 F               2         First time derivative of First time derivative of Platform yaw rotation DOF (internal DOF index = DOF_Y), rad/s/s
         18    2.024E-03                                 F               2         First time derivative of First time derivative of 1st tower fore-aft bending mode DOF (internal DOF index = DOF_TFA1), m/s/s
         19   -1.981E-03                                 F               2         First time derivative of First time derivative of 1st tower side-to-side bending mode DOF (internal DOF index = DOF_TSS1), m/s/s
         20    5.829E-07                                 F               2         First time derivative of First time derivative of 2nd tower fore-aft bending mode DOF (internal DOF index = DOF_TFA2), m/s/s
         21   -3.431E-06                                 F               2         First time derivative of First time derivative of 2nd tower side-to-side bending mode DOF (internal DOF index = DOF_TSS2), m/s/s
         22   -7.941E-06                                 F               2         First time derivative of First time derivative of Variable speed generator DOF (internal DOF index = DOF_GeAz), rad/s/s

Order of inputs:
     Column   Operating Point                     Rotating Frame? Derivative Order Description
   ---------- ---------------                     --------------- ---------------- -----------
          1    9.582E+01                                 F               0         Blade 1 X force, node 1, N
          2   -9.823E+01                                 F               0         Blade 1 Y force, node 1, N
          3   -4.108E+01                                 F               0         Blade 1 Z force, node 1, N
          4    4.219E+02                                 F               0         Blade 1 X force, node 2, N
          5   -1.813E+02                                 F               0         Blade 1 Y force, node 2, N
          6   -1.446E+02                                 F               0         Blade 1 Z force, node 2, N
          7    5.688E+02                                 F               0         Blade 1 X force, node 3, N
          8   -9.042E+01                                 F               0         Blade 1 Y force, node 3, N
          9   -1.727E+02                                 F               0         Blade 1 Z force, node 3, N
         10    7.607E+02                                 F               0         Blade 1 X force, node 4, N
         11   -2.145E+01                                 F               0         Blade 1 Y force, node 4, N
         12   -2.166E+02                                 F               0         Blade 1 Z force, node 4, N
         13    9.527E+02                                 F               0         Blade 1 X force, node 5, N
         14    4.753E+01                                 F               0         Blade 1 Y force, node 5, N
         15   -2.606E+02                                 F               0         Blade 1 Z force, node 5, N
         16    1.145E+03                                 F               0         Blade 1 X force, node 6, N
         17    1.165E+02                                 F               0         Blade 1 Y force, node 6, N
         18   -3.045E+02                                 F               0         Blade 1 Z force, node 6, N
         19    1.337E+03                                 F               0         Blade 1 X force, node 7, N
         20    1.855E+02                                 F               0         Blade 1 Y force, node 7, N
         21   -3.484E+02                                 F               0         Blade 1 Z force, node 7, N
         22    1.529E+03                                 F               0         Blade 1 X force, node 8, N
         23    2.545E+02                                 F               0         Blade 1 Y force, node 8, N
         24   -3.923E+02                                 F               0         Blade 1 Z force, node 8, N
         25    1.720E+03                                 F               0         Blade 1 X force, node 9, N
         26    3.234E+02                                 F               0         Blade 1 Y force, node 9, N
         27   -4.362E+02                                 F               0         Blade 1 Z force, node 9, N
         28    1.912E+03                                 F               0         Blade 1 X force, node 10, N
         29    3.924E+02                                 F               0         Blade 1 Y force, node 10, N
         30   -4.801E+02                                 F               0         Blade 1 Z force, node 10, N
         31    2.104E+03                                 F               0         Blade 1 X force, node 11, N
         32    4.614E+02                                 F               0         Blade 1 Y force, node 11, N
         33   -5.241E+02                                 F               0         Blade 1 Z force, node 11, N
         34    2.296E+03                                 F               0         Blade 1 X force, node 12, N
         35    5.304E+02                                 F               0         Blade 1 Y force, node 12, N
         36   -5.680E+02                                 F               0         Blade 1 Z force, node 12, N
         37    2.488E+03                                 F               0         Blade 1 X force, node 13, N
         38    5.994E+02                                 F               0         Blade 1 Y force, node 13, N
         39   -6.119E+02                                 F               0         Blade 1 Z force, node 13, N
         40    2.680E+03                                 F               0         Blade 1 X force, node 14, N
         41    6.683E+02                                 F               0         Blade 1 Y force, node 14, N
         42   -6.558E+02                                 F               0         Blade 1 Z force, node 14, N
         43    2.872E+03                                 F               0         Blade 1 X force, node 15, N
         44    7.373E+02                                 F               0         Blade 1 Y force, node 15, N
         45   -6.997E+02                                 F               0         Blade 1 Z force, node 15, N
         46    3.064E+03                                 F               0         Blade 1 X force, node 16, N
         47    8.063E+02                                 F               0         Blade 1 Y force, node 16, N
         48   -7.437E+02                                 F               0         Blade 1 Z force, node 16, N
         49    3.778E+03                                 F               0         Blade 1 X force, node 17, N
         50    1.011E+03                                 F               0         Blade 1 Y force, node 17, N
         51   -9.143E+02                                 F               0         Blade 1 Z force, node 17, N
         52    2.900E+03                                 F               0         Blade 1 X force, node 18, N
         53    7.521E+02                                 F               0         Blade 1 Y force, node 18, N
         54   -7.055E+02                                 F               0         Blade 1 Z force, node 18, N
         55    3.581E+03                                 F               0         Blade 1 X force, node 19, N
         56    8.866E+02                                 F               0         Blade 1 Y force, node 19, N
         57   -8.770E+02                                 F               0         Blade 1 Z force, node 19, N
         58    3.070E+03                                 F               0         Blade 1 X force, node 20, N
         59    7.274E+02                                 F               0         Blade 1 Y force, node 20, N
         60   -7.566E+02                                 F               0         Blade 1 Z force, node 20, N
         61    4.561E+03                                 F               0         Blade 1 X force, node 21, N
         62    1.027E+03                                 F               0         Blade 1 Y force, node 21, N
         63   -1.132E+03                                 F               0         Blade 1 Z force, node 21, N
         64    4.049E+03                                 F               0         Blade 1 X force, node 22, N
         65    8.662E+02                                 F               0         Blade 1 Y force, node 22, N
         66   -1.012E+03                                 F               0         Blade 1 Z force, node 22, N
         67    4.180E+03                                 F               0         Blade 1 X force, node 23, N
         68    8.535E+02                                 F               0         Blade 1 Y force, node 23, N
         69   -1.050E+03                                 F               0         Blade 1 Z force, node 23, N
         70    4.386E+03                                 F               0         Blade 1 X force, node 24, N
         71    8.555E+02                                 F               0         Blade 1 Y force, node 24, N
         72   -1.107E+03                                 F               0         Blade 1 Z force, node 24, N
         73    4.515E+03                                 F               0         Blade 1 X force, node 25, N
         74    8.418E+02                                 F               0         Blade 1 Y force, node 25, N
         75   -1.146E+03                                 F               0         Blade 1 Z force, node 25, N
         76    4.668E+03                                 F               0         Blade 1 X force, node 26, N
         77    8.328E+02                                 F               0         Blade 1 Y force, node 26, N
         78   -1.190E+03                                 F               0         Blade 1 Z force, node 26, N
         79    5.617E+03                                 F               0         Blade 1 X force, node 27, N
         80    9.571E+02                                 F               0         Blade 1 Y force, node 27, N
         81   -1.438E+03                                 F               0         Blade 1 Z force, node 27, N
         82    4.180E+03                                 F               0         Blade 1 X force, node 28, N
         83    6.812E+02                                 F               0         Blade 1 Y force, node 28, N
         84   -1.075E+03                                 F               0         Blade 1 Z force, node 28, N
         85    5.129E+03                                 F               0         Blade 1 X force, node 29, N
         86    8.050E+02                                 F               0         Blade 1 Y force, node 29, N
         87   -1.323E+03                                 F               0         Blade 1 Z force, node 29, N
         88    4.376E+03                                 F               0         Blade 1 X force, node 30, N
         89    6.621E+02                                 F               0         Blade 1 Y force, node 30, N
         90   -1.133E+03                                 F               0         Blade 1 Z force, node 30, N
         91    6.343E+03                                 F               0         Blade 1 X force, node 31, N
         92    9.193E+02                                 F               0         Blade 1 Y force, node 31, N
         93   -1.648E+03                                 F               0         Blade 1 Z force, node 31, N
         94    5.589E+03                                 F               0         Blade 1 X force, node 32, N
         95    7.758E+02                                 F               0         Blade 1 Y force, node 32, N
         96   -1.457E+03                                 F               0         Blade 1 Z force, node 32, N
         97    5.741E+03                                 F               0         Blade 1 X force, node 33, N
         98    7.657E+02                                 F               0         Blade 1 Y force, node 33, N
         99   -1.501E+03                                 F               0         Blade 1 Z force, node 33, N
        100    5.894E+03                                 F               0         Blade 1 X force, node 34, N
        101    7.557E+02                                 F               0         Blade 1 Y force, node 34, N
        102   -1.545E+03                                 F               0         Blade 1 Z force, node 34, N
        103    6.047E+03                                 F               0         Blade 1 X force, node 35, N
        104    7.455E+02                                 F               0         Blade 1 Y force, node 35, N
        105   -1.590E+03                                 F               0         Blade 1 Z force, node 35, N
        106    6.199E+03                                 F               0         Blade 1 X force, node 36, N
        107    7.351E+02                                 F               0         Blade 1 Y force, node 36, N
        108   -1.634E+03                                 F               0         Blade 1 Z force, node 36, N
        109    7.432E+03                                 F               0         Blade 1 X force, node 37, N
        110    8.460E+02                                 F               0         Blade 1 Y force, node 37, N
        111   -1.964E+03                                 F               0         Blade 1 Z force, node 37, N
        112    5.424E+03                                 F               0         Blade 1 X force, node 38, N
        113    5.933E+02                                 F               0         Blade 1 Y force, node 38, N
        114   -1.437E+03                                 F               0         Blade 1 Z force, node 38, N
        115    6.658E+03                                 F               0         Blade 1 X force, node 39, N
        116    7.043E+02                                 F               0         Blade 1 Y force, node 39, N
        117   -1.767E+03                                 F               0         Blade 1 Z force, node 39, N
        118    5.687E+03                                 F               0         Blade 1 X force, node 40, N
        119    5.817E+02                                 F               0         Blade 1 Y force, node 40, N
        120   -1.512E+03                                 F               0         Blade 1 Z force, node 40, N
        121    8.091E+03                                 F               0         Blade 1 X force, node 41, N
        122    7.959E+02                                 F               0         Blade 1 Y force, node 41, N
        123   -2.156E+03                                 F               0         Blade 1 Z force, node 41, N
        124    7.117E+03                                 F               0         Blade 1 X force, node 42, N
        125    6.728E+02                                 F               0         Blade 1 Y force, node 42, N
        126   -1.900E+03                                 F               0         Blade 1 Z force, node 42, N
        127    7.268E+03                                 F               0         Blade 1 X force, node 43, N
        128    6.620E+02                                 F               0         Blade 1 Y force, node 43, N
        129   -1.944E+03                                 F               0         Blade 1 Z force, node 43, N
        130    7.458E+03                                 F               0         Blade 1 X force, node 44, N
        131    6.545E+02                                 F               0         Blade 1 Y force, node 44, N
        132   -1.999E+03                                 F               0         Blade 1 Z force, node 44, N
        133    7.531E+03                                 F               0         Blade 1 X force, node 45, N
        134    6.369E+02                                 F               0         Blade 1 Y force, node 45, N
        135   -2.022E+03                                 F               0         Blade 1 Z force, node 45, N
        136    7.722E+03                                 F               0         Blade 1 X force, node 46, N
        137    6.295E+02                                 F               0         Blade 1 Y force, node 46, N
        138   -2.077E+03                                 F               0         Blade 1 Z force, node 46, N
        139    9.256E+03                                 F               0         Blade 1 X force, node 47, N
        140    7.254E+02                                 F               0         Blade 1 Y force, node 47, N
        141   -2.493E+03                                 F               0         Blade 1 Z force, node 47, N
        142    6.643E+03                                 F               0         Blade 1 X force, node 48, N
        143    5.008E+02                                 F               0         Blade 1 Y force, node 48, N
        144   -1.792E+03                                 F               0         Blade 1 Z force, node 48, N
        145    8.175E+03                                 F               0         Blade 1 X force, node 49, N
        146    5.966E+02                                 F               0         Blade 1 Y force, node 49, N
        147   -2.209E+03                                 F               0         Blade 1 Z force, node 49, N
        148    7.001E+03                                 F               0         Blade 1 X force, node 50, N
        149    4.943E+02                                 F               0         Blade 1 Y force, node 50, N
        150   -1.894E+03                                 F               0         Blade 1 Z force, node 50, N
        151    9.802E+03                                 F               0         Blade 1 X force, node 51, N
        152    6.658E+02                                 F               0         Blade 1 Y force, node 51, N
        153   -2.655E+03                                 F               0         Blade 1 Z force, node 51, N
        154    8.630E+03                                 F               0         Blade 1 X force, node 52, N
        155    5.638E+02                                 F               0         Blade 1 Y force, node 52, N
        156   -2.341E+03                                 F               0         Blade 1 Z force, node 52, N
        157    8.783E+03                                 F               0         Blade 1 X force, node 53, N
        158    5.530E+02                                 F               0         Blade 1 Y force, node 53, N
        159   -2.386E+03                                 F               0         Blade 1 Z force, node 53, N
        160    9.035E+03                                 F               0         Blade 1 X force, node 54, N
        161    5.481E+02                                 F               0         Blade 1 Y force, node 54, N
        162   -2.457E+03                                 F               0         Blade 1 Z force, node 54, N
        163    8.990E+03                                 F               0         Blade 1 X force, node 55, N
        164    5.254E+02                                 F               0         Blade 1 Y force, node 55, N
        165   -2.448E+03                                 F               0         Blade 1 Z force, node 55, N
        166    9.241E+03                                 F               0         Blade 1 X force, node 56, N
        167    5.203E+02                                 F               0         Blade 1 Y force, node 56, N
        168   -2.519E+03                                 F               0         Blade 1 Z force, node 56, N
        169    1.109E+04                                 F               0         Blade 1 X force, node 57, N
        170    6.000E+02                                 F               0         Blade 1 Y force, node 57, N
        171   -3.027E+03                                 F               0         Blade 1 Z force, node 57, N
        172    7.845E+03                                 F               0         Blade 1 X force, node 58, N
        173    4.077E+02                                 F               0         Blade 1 Y force, node 58, N
        174   -2.143E+03                                 F               0         Blade 1 Z force, node 58, N
        175    9.697E+03                                 F               0         Blade 1 X force, node 59, N
        176    4.874E+02                                 F               0         Blade 1 Y force, node 59, N
        177   -2.652E+03                                 F               0         Blade 1 Z force, node 59, N
        178    8.341E+03                                 F               0         Blade 1 X force, node 60, N
        179    4.050E+02                                 F               0         Blade 1 Y force, node 60, N
        180   -2.283E+03                                 F               0         Blade 1 Z force, node 60, N
        181    1.151E+04                                 F               0         Blade 1 X force, node 61, N
        182    5.366E+02                                 F               0         Blade 1 Y force, node 61, N
        183   -3.153E+03                                 F               0         Blade 1 Z force, node 61, N
        184    1.015E+04                                 F               0         Blade 1 X force, node 62, N