
Linearized model: Predictions were generated on 19-Dec-2023 at 09:27:32 using OpenFAST, compiled as a 64-bit application using single precision at commit v3.5.1
 linked with  NWTC Subroutine Library; ElastoDyn; InflowWind; AeroDyn; ServoDyn; HydroDyn; MoorDyn (v2.0.0, 2023-09-18)

Description from the FAST input file: CCT-9 Campign 4 model. Input files to be run with OpenFAST 3.5.0. GitHub branch from Lu Wang (https://github.com/luwang00/openfast/tree/dev) compiled on March 7, 2023.

Simulation information:
   Simulation time:                  1008.4500 s
   Rotor Speed:                         1.0408 rad/s
   Azimuth:                             1.3576 rad
   Wind Speed:                         12.0000 m/s
   Number of continuous states:         0
   Number of discrete states:           0
   Number of constraint states:         0
   Number of inputs:                 1746
   Number of outputs:                   4
   Jacobians included in this file?    No

Order of inputs:
     Column   Operating Point                     Rotating Frame? Derivative Order Description
   ---------- ---------------                     --------------- ---------------- -----------
          1    1.511E+01                                 F               0         Tower X translation displacement, node 1, m
          2   -9.586E-01                                 F               0         Tower Y translation displacement, node 1, m
          3   -4.126E-01                                 F               0         Tower Z translation displacement, node 1, m
          4    1.702E+01                                 F               0         Tower X translation displacement, node 2, m
          5   -1.469E+00                                 F               0         Tower Y translation displacement, node 2, m
          6   -5.715E-01                                 F               0         Tower Z translation displacement, node 2, m
          7    1.896E+01                                 F               0         Tower X translation displacement, node 3, m
          8   -1.984E+00                                 F               0         Tower Y translation displacement, node 3, m
          9   -7.360E-01                                 F               0         Tower Z translation displacement, node 3, m
         10    2.093E+01                                 F               0         Tower X translation displacement, node 4, m
         11   -2.502E+00                                 F               0         Tower Y translation displacement, node 4, m
         12   -9.049E-01                                 F               0         Tower Z translation displacement, node 4, m
         13    2.292E+01                                 F               0         Tower X translation displacement, node 5, m
         14   -3.024E+00                                 F               0         Tower Y translation displacement, node 5, m
         15   -1.077E+00                                 F               0         Tower Z translation displacement, node 5, m
         16    2.493E+01                                 F               0         Tower X translation displacement, node 6, m
         17   -3.549E+00                                 F               0         Tower Y translation displacement, node 6, m
         18   -1.253E+00                                 F               0         Tower Z translation displacement, node 6, m
         19    2.695E+01                                 F               0         Tower X translation displacement, node 7, m
         20   -4.075E+00                                 F               0         Tower Y translation displacement, node 7, m
         21   -1.431E+00                                 F               0         Tower Z translation displacement, node 7, m
         22    2.899E+01                                 F               0         Tower X translation displacement, node 8, m
         23   -4.603E+00                                 F               0         Tower Y translation displacement, node 8, m
         24   -1.611E+00                                 F               0         Tower Z translation displacement, node 8, m
         25    3.103E+01                                 F               0         Tower X translation displacement, node 9, m
         26   -5.133E+00                                 F               0         Tower Y translation displacement, node 9, m
         27   -1.792E+00                                 F               0         Tower Z translation displacement, node 9, m
         28    3.307E+01                                 F               0         Tower X translation displacement, node 10, m
         29   -5.664E+00                                 F               0         Tower Y translation displacement, node 10, m
         30   -1.975E+00                                 F               0         Tower Z translation displacement, node 10, m
         31    3.512E+01                                 F               0         Tower X translation displacement, node 11, m
         32   -6.195E+00                                 F               0         Tower Y translation displacement, node 11, m
         33   -2.157E+00                                 F               0         Tower Z translation displacement, node 11, m
         34    9.881E-01,  1.476E-02, -1.529E-01         F               0         Tower X orientation angle, node 1, rad
         35   -8.285E-03,  9.990E-01,  4.293E-02         F               0         Tower Y orientation angle, node 1, rad
         36    1.533E-01, -4.116E-02,  9.873E-01         F               0         Tower Z orientation angle, node 1, rad
         37    9.877E-01,  1.487E-02, -1.554E-01         F               0         Tower X orientation angle, node 2, rad
         38   -8.225E-03,  9.990E-01,  4.332E-02         F               0         Tower Y orientation angle, node 2, rad
         39    1.559E-01, -4.151E-02,  9.869E-01         F               0         Tower Z orientation angle, node 2, rad
         40    9.874E-01,  1.497E-02, -1.577E-01         F               0         Tower X orientation angle, node 3, rad
         41   -8.170E-03,  9.990E-01,  4.366E-02         F               0         Tower Y orientation angle, node 3, rad
         42    1.582E-01, -4.182E-02,  9.865E-01         F               0         Tower Z orientation angle, node 3, rad
         43    9.871E-01,  1.505E-02, -1.597E-01         F               0         Tower X orientation angle, node 4, rad
         44   -8.121E-03,  9.990E-01,  4.396E-02         F               0         Tower Y orientation angle, node 4, rad
         45    1.602E-01, -4.210E-02,  9.862E-01         F               0         Tower Z orientation angle, node 4, rad
         46    9.868E-01,  1.512E-02, -1.613E-01         F               0         Tower X orientation angle, node 5, rad
         47   -8.079E-03,  9.990E-01,  4.422E-02         F               0         Tower Y orientation angle, node 5, rad
         48    1.618E-01, -4.233E-02,  9.859E-01         F               0         Tower Z orientation angle, node 5, rad
         49    9.866E-01,  1.518E-02, -1.626E-01         F               0         Tower X orientation angle, node 6, rad
         50   -8.044E-03,  9.990E-01,  4.444E-02         F               0         Tower Y orientation angle, node 6, rad
         51    1.631E-01, -4.253E-02,  9.857E-01         F               0         Tower Z orientation angle, node 6, rad
         52    9.864E-01,  1.522E-02, -1.637E-01         F               0         Tower X orientation angle, node 7, rad
         53   -8.015E-03,  9.990E-01,  4.461E-02         F               0         Tower Y orientation angle, node 7, rad
         54    1.642E-01, -4.269E-02,  9.855E-01         F               0         Tower Z orientation angle, node 7, rad
         55    9.863E-01,  1.526E-02, -1.644E-01         F               0         Tower X orientation angle, node 8, rad
         56   -7.993E-03,  9.990E-01,  4.474E-02         F               0         Tower Y orientation angle, node 8, rad
         57    1.649E-01, -4.282E-02,  9.854E-01         F               0         Tower Z orientation angle, node 8, rad
         58    9.862E-01,  1.528E-02, -1.650E-01         F               0         Tower X orientation angle, node 9, rad
         59   -7.976E-03,  9.990E-01,  4.484E-02         F               0         Tower Y orientation angle, node 9, rad
         60    1.655E-01, -4.291E-02,  9.853E-01         F               0         Tower Z orientation angle, node 9, rad
         61    9.861E-01,  1.529E-02, -1.653E-01         F               0         Tower X orientation angle, node 10, rad
         62   -7.966E-03,  9.990E-01,  4.491E-02         F               0         Tower Y orientation angle, node 10, rad
         63    1.658E-01, -4.297E-02,  9.852E-01         F               0         Tower Z orientation angle, node 10, rad
         64    9.861E-01,  1.530E-02, -1.655E-01         F               0         Tower X orientation angle, node 11, rad
         65   -7.960E-03,  9.990E-01,  4.494E-02         F               0         Tower Y orientation angle, node 11, rad
         66    1.660E-01, -4.300E-02,  9.852E-01         F               0         Tower Z orientation angle, node 11, rad
         67   -4.869E-04                                 F               0         Tower X translation velocity, node 1, m/s
         68   -1.680E-02                                 F               0         Tower Y translation velocity, node 1, m/s
         69    7.798E-04                                 F               0         Tower Z translation velocity, node 1, m/s
         70   -5.665E-04                                 F               0         Tower X translation velocity, node 2, m/s
         71   -2.879E-02                                 F               0         Tower Y translation velocity, node 2, m/s
         72    2.905E-04                                 F               0         Tower Z translation velocity, node 2, m/s
         73   -6.919E-04                                 F               0         Tower X translation velocity, node 3, m/s
         74   -4.101E-02                                 F               0         Tower Y translation velocity, node 3, m/s
         75   -2.057E-04                                 F               0         Tower Z translation velocity, node 3, m/s
         76   -8.501E-04                                 F               0         Tower X translation velocity, node 4, m/s
         77   -5.341E-02                                 F               0         Tower Y translation velocity, node 4, m/s
         78   -7.079E-04                                 F               0         Tower Z translation velocity, node 4, m/s
         79   -1.034E-03                                 F               0         Tower X translation velocity, node 5, m/s
         80   -6.598E-02                                 F               0         Tower Y translation velocity, node 5, m/s
         81   -1.216E-03                                 F               0         Tower Z translation velocity, node 5, m/s
         82   -1.237E-03                                 F               0         Tower X translation velocity, node 6, m/s
         83   -7.868E-02                                 F               0         Tower Y translation velocity, node 6, m/s
         84   -1.729E-03                                 F               0         Tower Z translation velocity, node 6, m/s
         85   -1.452E-03                                 F               0         Tower X translation velocity, node 7, m/s
         86   -9.148E-02                                 F               0         Tower Y translation velocity, node 7, m/s
         87   -2.247E-03                                 F               0         Tower Z translation velocity, node 7, m/s
         88   -1.675E-03                                 F               0         Tower X translation velocity, node 8, m/s
         89   -1.044E-01                                 F               0         Tower Y translation velocity, node 8, m/s
         90   -2.770E-03                                 F               0         Tower Z translation velocity, node 8, m/s
         91   -1.904E-03                                 F               0         Tower X translation velocity, node 9, m/s
         92   -1.174E-01                                 F               0         Tower Y translation velocity, node 9, m/s
         93   -3.296E-03                                 F               0         Tower Z translation velocity, node 9, m/s
         94   -2.135E-03                                 F               0         Tower X translation velocity, node 10, m/s
         95   -1.304E-01                                 F               0         Tower Y translation velocity, node 10, m/s
         96   -3.825E-03                                 F               0         Tower Z translation velocity, node 10, m/s
         97   -2.367E-03                                 F               0         Tower X translation velocity, node 11, m/s
         98   -1.434E-01                                 F               0         Tower Y translation velocity, node 11, m/s
         99   -4.356E-03                                 F               0         Tower Z translation velocity, node 11, m/s
        100    3.658E+01                                 F               0         Hub X translation displacement, node 1, m
        101   -6.697E+00                                 F               0         Hub Y translation displacement, node 1, m
        102   -4.866E-01                                 F               0         Hub Z translation displacement, node 1, m
        103    9.633E-01,  1.971E-02, -2.675E-01         F               0         Hub X orientation angle, node 1, rad
        104    2.604E-01,  1.711E-01,  9.502E-01         F               0         Hub Y orientation angle, node 1, rad
        105    6.451E-02, -9.851E-01,  1.597E-01         F               0         Hub Z orientation angle, node 1, rad
        106    1.004E+00                                 F               0         Hub X rotation velocity, node 1, rad/s
        107    2.051E-02                                 F               0         Hub Y rotation velocity, node 1, rad/s
        108   -2.787E-01                                 F               0         Hub Z rotation velocity, node 1, rad/s
        109    9.552E-01,  1.463E-02, -2.956E-01         F               0         Blade root 1 X orientation angle, node 1, rad
        110    2.889E-01,  1.716E-01,  9.419E-01         F               0         Blade root 1 Y orientation angle, node 1, rad
        111    6.451E-02, -9.851E-01,  1.597E-01         F               0         Blade root 1 Z orientation angle, node 1, rad
        112    9.651E-01,  4.755E-02, -2.574E-01         F               0         Blade root 2 X orientation angle, node 1, rad
        113   -4.572E-02, -9.376E-01, -3.446E-01         F               0         Blade root 2 Y orientation angle, node 1, rad
        114   -2.578E-01,  3.444E-01, -9.028E-01         F               0         Blade root 2 Z orientation angle, node 1, rad
        115    9.684E-01, -3.066E-03, -2.492E-01         F               0         Blade root 3 X orientation angle, node 1, rad
        116   -1.574E-01,  7.678E-01, -6.211E-01         F               0         Blade root 3 Y orientation angle, node 1, rad
        117    1.933E-01,  6.407E-01,  7.431E-01         F               0         Blade root 3 Z orientation angle, node 1, rad
        118    3.636E+01                                 F               0         Blade 1 X translation displacement, node 1, m
        119   -1.215E+01                                 F               0         Blade 1 Y translation displacement, node 1, m
        120   -5.112E+00                                 F               0         Blade 1 Z translation displacement, node 1, m
        121    3.630E+01                                 F               0         Blade 1 X translation displacement, node 2, m
        122   -1.347E+01                                 F               0         Blade 1 Y translation displacement, node 2, m
        123   -6.226E+00                                 F               0         Blade 1 Z translation displacement, node 2, m
        124    3.558E+01                                 F               0         Blade 1 X translation displacement, node 3, m
        125   -3.135E+01                                 F               0         Blade 1 Y translation displacement, node 3, m
        126   -2.138E+01                                 F               0         Blade 1 Z translation displacement, node 3, m
        127    3.542E+01                                 F               0         Blade 1 X translation displacement, node 4, m
        128   -3.516E+01                                 F               0         Blade 1 Y translation displacement, node 4, m
        129   -2.461E+01                                 F               0         Blade 1 Z translation displacement, node 4, m
        130    3.527E+01                                 F               0         Blade 1 X translation displacement, node 5, m
        131   -3.897E+01                                 F               0         Blade 1 Y translation displacement, node 5, m
        132   -2.784E+01                                 F               0         Blade 1 Z translation displacement, node 5, m
        133    3.511E+01                                 F               0         Blade 1 X translation displacement, node 6, m
        134   -4.278E+01                                 F               0         Blade 1 Y translation displacement, node 6, m
        135   -3.107E+01                                 F               0         Blade 1 Z translation displacement, node 6, m
        136    3.496E+01                                 F               0         Blade 1 X translation displacement, node 7, m
        137   -4.659E+01                                 F               0         Blade 1 Y translation displacement, node 7, m
        138   -3.430E+01                                 F               0         Blade 1 Z translation displacement, node 7, m
        139    3.480E+01                                 F               0         Blade 1 X translation displacement, node 8, m
        140   -5.040E+01                                 F               0         Blade 1 Y translation displacement, node 8, m
        141   -3.752E+01                                 F               0         Blade 1 Z translation displacement, node 8, m
        142    3.465E+01                                 F               0         Blade 1 X translation displacement, node 9, m
        143   -5.421E+01                                 F               0         Blade 1 Y translation displacement, node 9, m
        144   -4.075E+01                                 F               0         Blade 1 Z translation displacement, node 9, m
        145    3.449E+01                                 F               0         Blade 1 X translation displacement, node 10, m
        146   -5.802E+01                                 F               0         Blade 1 Y translation displacement, node 10, m
        147   -4.398E+01                                 F               0         Blade 1 Z translation displacement, node 10, m
        148    3.434E+01                                 F               0         Blade 1 X translation displacement, node 11, m
        149   -6.183E+01                                 F               0         Blade 1 Y translation displacement, node 11, m
        150   -4.721E+01                                 F               0         Blade 1 Z translation displacement, node 11, m
        151    3.418E+01                                 F               0         Blade 1 X translation displacement, node 12, m
        152   -6.564E+01                                 F               0         Blade 1 Y translation displacement, node 12, m
        153   -5.044E+01                                 F               0         Blade 1 Z translation displacement, node 12, m
        154    3.403E+01                                 F               0         Blade 1 X translation displacement, node 13, m
        155   -6.945E+01                                 F               0         Blade 1 Y translation displacement, node 13, m
        156   -5.367E+01                                 F               0         Blade 1 Z translation displacement, node 13, m
        157    3.387E+01                                 F               0         Blade 1 X translation displacement, node 14, m
        158   -7.326E+01                                 F               0         Blade 1 Y translation displacement, node 14, m
        159   -5.690E+01                                 F               0         Blade 1 Z translation displacement, node 14, m
        160    3.372E+01                                 F               0         Blade 1 X translation displacement, node 15, m
        161   -7.707E+01                                 F               0         Blade 1 Y translation displacement, node 15, m
        162   -6.013E+01                                 F               0         Blade 1 Z translation displacement, node 15, m
        163    3.356E+01                                 F               0         Blade 1 X translation displacement, node 16, m
        164   -8.088E+01                                 F               0         Blade 1 Y translation displacement, node 16, m
        165   -6.336E+01                                 F               0         Blade 1 Z translation displacement, node 16, m
        166    3.341E+01                                 F               0         Blade 1 X translation displacement, node 17, m
        167   -8.469E+01                                 F               0         Blade 1 Y translation displacement, node 17, m
        168   -6.658E+01                                 F               0         Blade 1 Z translation displacement, node 17, m
        169    3.325E+01                                 F               0         Blade 1 X translation displacement, node 18, m
        170   -8.850E+01                                 F               0         Blade 1 Y translation displacement, node 18, m
        171   -6.981E+01                                 F               0         Blade 1 Z translation displacement, node 18, m
        172    3.310E+01                                 F               0         Blade 1 X translation displacement, node 19, m
        173   -9.231E+01                                 F               0         Blade 1 Y translation displacement, node 19, m
        174   -7.304E+01                                 F               0         Blade 1 Z translation displacement, node 19, m
        175    3.294E+01                                 F               0         Blade 1 X translation displacement, node 20, m
        176   -9.612E+01                                 F               0         Blade 1 Y translation displacement, node 20, m
        177   -7.627E+01                                 F               0         Blade 1 Z translation displacement, node 20, m
        178    3.279E+01                                 F               0         Blade 1 X translation displacement, node 21, m
        179   -9.993E+01                                 F               0         Blade 1 Y translation displacement, node 21, m
        180   -7.950E+01                                 F               0         Blade 1 Z translation displacement, node 21, m
        181    3.263E+01                                 F               0         Blade 1 X translation displacement, node 22, m
        182   -1.037E+02                                 F               0         Blade 1 Y translation displacement, node 22, m
        183   -8.273E+01                                 F               0         Blade 1 Z translation displacement, node 22, m
        184    3.248E+01                                 F               0         Blade 1 X translation displacement, node 23, m
        185   -1.075E+02                                 F               0         Blade 1 Y translation displacement, node 23, m
        186   -8.596E+01                                 F               0         Blade 1 Z translation displacement, node 23, m
        187    3.233E+01                                 F               0         Blade 1 X translation displacement, node 24, m
        188   -1.114E+02                                 F               0         Blade 1 Y translation displacement, node 24, m
        189   -8.919E+01                                 F               0         Blade 1 Z translation displacement, node 24, m
        190    3.217E+01                                 F               0         Blade 1 X translation displacement, node 25, m
        191   -1.152E+02                                 F               0         Blade 1 Y translation displacement, node 25, m
        192   -9.241E+01                                 F               0         Blade 1 Z translation displacement, node 25, m
        193    3.202E+01                                 F               0         Blade 1 X translation displacement, node 26, m
        194   -1.190E+02                                 F               0         Blade 1 Y translation displacement, node 26, m
        195   -9.564E+01                                 F               0         Blade 1 Z translation displacement, node 26, m
        196    3.186E+01                                 F               0         Blade 1 X translation displacement, node 27, m
        197   -1.228E+02                                 F               0         Blade 1 Y translation displacement, node 27, m
        198   -9.887E+01                                 F               0         Blade 1 Z translation displacement, node 27, m
        199    3.173E+01                                 F               0         Blade 1 X translation displacement, node 28, m
        200   -1.260E+02                                 F               0         Blade 1 Y translation displacement, node 28, m
        201   -1.016E+02                                 F               0         Blade 1 Z translation displacement, node 28, m
        202    7.184E-01, -6.524E-02, -6.926E-01         F               0         Blade 1 X orientation angle, node 1, rad
        203    6.927E-01,  1.594E-01,  7.034E-01         F               0         Blade 1 Y orientation angle, node 1, rad
        204    6.451E-02, -9.851E-01,  1.597E-01         F               0         Blade 1 Z orientation angle, node 1, rad
        205    7.184E-01, -6.524E-02, -6.926E-01         F               0         Blade 1 X orientation angle, node 2, rad
        206    6.927E-01,  1.594E-01,  7.034E-01         F               0         Blade 1 Y orientation angle, node 2, rad
        207    6.451E-02, -9.851E-01,  1.597E-01         F               0         Blade 1 Z orientation angle, node 2, rad
        208    8.621E-01, -2.560E-02, -5.061E-01         F               0         Blade 1 X orientation angle, node 3, rad
        209    5.027E-01,  1.703E-01,  8.475E-01         F               0         Blade 1 Y orientation angle, node 3, rad
        210    6.451E-02, -9.851E-01,  1.597E-01         F               0         Blade 1 Z orientation angle, node 3, rad
        211    8.825E-01, -1.839E-02, -4.699E-01         F               0         Blade 1 X orientation angle, node 4, rad
        212    4.658E-01,  1.712E-01,  8.682E-01         F               0         Blade 1 Y orientation angle, node 4, rad
        213    6.451E-02, -9.851E-01,  1.597E-01         F               0         Blade 1 Z orientation angle, node 4, rad
        214    8.975E-01, -1.270E-02, -4.409E-01         F               0         Blade 1 X orientation angle, node 5, rad
        215    4.363E-01,  1.718E-01,  8.833E-01         F               0         Blade 1 Y orientation angle, node 5, rad
        216    6.451E-02, -9.851E-01,  1.597E-01         F               0         Blade 1 Z orientation angle, node 5, rad
        217    9.087E-01, -8.137E-03, -4.173E-01         F               0         Blade 1 X orientation angle, node 6, rad
        218    4.123E-01,  1.720E-01,  8.946E-01         F               0         Blade 1 Y orientation angle, node 6, rad
        219    6.451E-02, -9.851E-01,  1.597E-01         F               0         Blade 1 Z orientation angle, node 6, rad
        220    9.175E-01, -4.382E-03, -3.977E-01         F               0         Blade 1 X orientation angle, node 7, rad
        221    3.924E-01,  1.722E-01,  9.035E-01         F               0         Blade 1 Y orientation angle, node 7, rad
        222    6.451E-02, -9.851E-01,  1.597E-01         F               0         Blade 1 Z orientation angle, node 7, rad
        223    9.245E-01, -1.256E-03, -3.812E-01         F               0         Blade 1 X orientation angle, node 8, rad
        224    3.757E-01,  1.722E-01,  9.106E-01         F               0         Blade 1 Y orientation angle, node 8, rad
        225    6.451E-02, -9.851E-01,  1.597E-01         F               0         Blade 1 Z orientation angle, node 8, rad
        226    9.302E-01,  1.389E-03, -3.672E-01         F               0         Blade 1 X orientation angle, node 9, rad
        227    3.615E-01,  1.722E-01,  9.163E-01         F               0         Blade 1 Y orientation angle, node 9, rad