
Linearized model: Predictions were generated on 19-Dec-2023 at 09:27:32 using OpenFAST, compiled as a 64-bit application using single precision at commit v3.5.1
 linked with  NWTC Subroutine Library; ElastoDyn; InflowWind; AeroDyn; ServoDyn; HydroDyn; MoorDyn (v2.0.0, 2023-09-18)

Description from the FAST input file: CCT-9 Campign 4 model. Input files to be run with OpenFAST 3.5.0. GitHub branch from Lu Wang (https://github.com/luwang00/openfast/tree/dev) compiled on March 7, 2023.

Simulation information:
   Simulation time:                  1003.9750 s
   Rotor Speed:                         1.0411 rad/s
   Azimuth:                             2.9827 rad
   Wind Speed:                         12.0000 m/s
   Number of continuous states:         0
   Number of discrete states:           0
   Number of constraint states:         0
   Number of inputs:                  303
   Number of outputs:                   1
   Jacobians included in this file?    No

Order of inputs:
     Column   Operating Point                     Rotating Frame? Derivative Order Description
   ---------- ---------------                     --------------- ---------------- -----------
          1   -1.080E+01                                 F               0         X-component position of node 1 (hub), m
          2    0.000E+00                                 F               0         Y-component position of node 1 (hub), m
          3    1.497E+02                                 F               0         Z-component position of node 1 (hub), m
          4    2.431E+01                                 F               0         X-component position of node 2 (blade 1, node 1), m
          5   -6.733E+00                                 F               0         Y-component position of node 2 (blade 1, node 1), m
          6    1.440E+02                                 F               0         Z-component position of node 2 (blade 1, node 1), m
          7    2.396E+01                                 F               0         X-component position of node 3 (blade 1, node 2), m
          8   -6.896E+00                                 F               0         Y-component position of node 3 (blade 1, node 2), m
          9    1.427E+02                                 F               0         Z-component position of node 3 (blade 1, node 2), m
         10    1.918E+01                                 F               0         X-component position of node 4 (blade 1, node 3), m
         11   -9.109E+00                                 F               0         Y-component position of node 4 (blade 1, node 3), m
         12    1.253E+02                                 F               0         Z-component position of node 4 (blade 1, node 3), m
         13    1.816E+01                                 F               0         X-component position of node 5 (blade 1, node 4), m
         14   -9.581E+00                                 F               0         Y-component position of node 5 (blade 1, node 4), m
         15    1.216E+02                                 F               0         Z-component position of node 5 (blade 1, node 4), m
         16    1.715E+01                                 F               0         X-component position of node 6 (blade 1, node 5), m
         17   -1.005E+01                                 F               0         Y-component position of node 6 (blade 1, node 5), m
         18    1.179E+02                                 F               0         Z-component position of node 6 (blade 1, node 5), m
         19    1.613E+01                                 F               0         X-component position of node 7 (blade 1, node 6), m
         20   -1.052E+01                                 F               0         Y-component position of node 7 (blade 1, node 6), m
         21    1.142E+02                                 F               0         Z-component position of node 7 (blade 1, node 6), m
         22    1.511E+01                                 F               0         X-component position of node 8 (blade 1, node 7), m
         23   -1.100E+01                                 F               0         Y-component position of node 8 (blade 1, node 7), m
         24    1.105E+02                                 F               0         Z-component position of node 8 (blade 1, node 7), m
         25    1.409E+01                                 F               0         X-component position of node 9 (blade 1, node 8), m
         26   -1.147E+01                                 F               0         Y-component position of node 9 (blade 1, node 8), m
         27    1.068E+02                                 F               0         Z-component position of node 9 (blade 1, node 8), m
         28    1.308E+01                                 F               0         X-component position of node 10 (blade 1, node 9), m
         29   -1.194E+01                                 F               0         Y-component position of node 10 (blade 1, node 9), m
         30    1.031E+02                                 F               0         Z-component position of node 10 (blade 1, node 9), m
         31    1.206E+01                                 F               0         X-component position of node 11 (blade 1, node 10), m
         32   -1.241E+01                                 F               0         Y-component position of node 11 (blade 1, node 10), m
         33    9.940E+01                                 F               0         Z-component position of node 11 (blade 1, node 10), m
         34    1.104E+01                                 F               0         X-component position of node 12 (blade 1, node 11), m
         35   -1.288E+01                                 F               0         Y-component position of node 12 (blade 1, node 11), m
         36    9.570E+01                                 F               0         Z-component position of node 12 (blade 1, node 11), m
         37    1.002E+01                                 F               0         X-component position of node 13 (blade 1, node 12), m
         38   -1.335E+01                                 F               0         Y-component position of node 13 (blade 1, node 12), m
         39    9.200E+01                                 F               0         Z-component position of node 13 (blade 1, node 12), m
         40    9.004E+00                                 F               0         X-component position of node 14 (blade 1, node 13), m
         41   -1.383E+01                                 F               0         Y-component position of node 14 (blade 1, node 13), m
         42    8.830E+01                                 F               0         Z-component position of node 14 (blade 1, node 13), m
         43    7.986E+00                                 F               0         X-component position of node 15 (blade 1, node 14), m
         44   -1.430E+01                                 F               0         Y-component position of node 15 (blade 1, node 14), m
         45    8.460E+01                                 F               0         Z-component position of node 15 (blade 1, node 14), m
         46    6.968E+00                                 F               0         X-component position of node 16 (blade 1, node 15), m
         47   -1.477E+01                                 F               0         Y-component position of node 16 (blade 1, node 15), m
         48    8.089E+01                                 F               0         Z-component position of node 16 (blade 1, node 15), m
         49    5.950E+00                                 F               0         X-component position of node 17 (blade 1, node 16), m
         50   -1.524E+01                                 F               0         Y-component position of node 17 (blade 1, node 16), m
         51    7.719E+01                                 F               0         Z-component position of node 17 (blade 1, node 16), m
         52    4.932E+00                                 F               0         X-component position of node 18 (blade 1, node 17), m
         53   -1.571E+01                                 F               0         Y-component position of node 18 (blade 1, node 17), m
         54    7.349E+01                                 F               0         Z-component position of node 18 (blade 1, node 17), m
         55    3.914E+00                                 F               0         X-component position of node 19 (blade 1, node 18), m
         56   -1.618E+01                                 F               0         Y-component position of node 19 (blade 1, node 18), m
         57    6.979E+01                                 F               0         Z-component position of node 19 (blade 1, node 18), m
         58    2.896E+00                                 F               0         X-component position of node 20 (blade 1, node 19), m
         59   -1.666E+01                                 F               0         Y-component position of node 20 (blade 1, node 19), m
         60    6.609E+01                                 F               0         Z-component position of node 20 (blade 1, node 19), m
         61    1.878E+00                                 F               0         X-component position of node 21 (blade 1, node 20), m
         62   -1.713E+01                                 F               0         Y-component position of node 21 (blade 1, node 20), m
         63    6.239E+01                                 F               0         Z-component position of node 21 (blade 1, node 20), m
         64    8.606E-01                                 F               0         X-component position of node 22 (blade 1, node 21), m
         65   -1.760E+01                                 F               0         Y-component position of node 22 (blade 1, node 21), m
         66    5.869E+01                                 F               0         Z-component position of node 22 (blade 1, node 21), m
         67   -1.574E-01                                 F               0         X-component position of node 23 (blade 1, node 22), m
         68   -1.807E+01                                 F               0         Y-component position of node 23 (blade 1, node 22), m
         69    5.498E+01                                 F               0         Z-component position of node 23 (blade 1, node 22), m
         70   -1.175E+00                                 F               0         X-component position of node 24 (blade 1, node 23), m
         71   -1.854E+01                                 F               0         Y-component position of node 24 (blade 1, node 23), m
         72    5.128E+01                                 F               0         Z-component position of node 24 (blade 1, node 23), m
         73   -2.193E+00                                 F               0         X-component position of node 25 (blade 1, node 24), m
         74   -1.902E+01                                 F               0         Y-component position of node 25 (blade 1, node 24), m
         75    4.758E+01                                 F               0         Z-component position of node 25 (blade 1, node 24), m
         76   -3.211E+00                                 F               0         X-component position of node 26 (blade 1, node 25), m
         77   -1.949E+01                                 F               0         Y-component position of node 26 (blade 1, node 25), m
         78    4.388E+01                                 F               0         Z-component position of node 26 (blade 1, node 25), m
         79   -4.229E+00                                 F               0         X-component position of node 27 (blade 1, node 26), m
         80   -1.996E+01                                 F               0         Y-component position of node 27 (blade 1, node 26), m
         81    4.018E+01                                 F               0         Z-component position of node 27 (blade 1, node 26), m
         82   -5.247E+00                                 F               0         X-component position of node 28 (blade 1, node 27), m
         83   -2.043E+01                                 F               0         Y-component position of node 28 (blade 1, node 27), m
         84    3.648E+01                                 F               0         Z-component position of node 28 (blade 1, node 27), m
         85   -6.110E+00                                 F               0         X-component position of node 29 (blade 1, node 28), m
         86   -2.083E+01                                 F               0         Y-component position of node 29 (blade 1, node 28), m
         87    3.334E+01                                 F               0         Z-component position of node 29 (blade 1, node 28), m
         88    2.625E+01                                 F               0         X-component position of node 30 (blade 2, node 1), m
         89   -9.583E-01                                 F               0         Y-component position of node 30 (blade 2, node 1), m
         90    1.514E+02                                 F               0         Z-component position of node 30 (blade 2, node 1), m
         91    2.636E+01                                 F               0         X-component position of node 31 (blade 2, node 2), m
         92    2.703E-01                                 F               0         Y-component position of node 31 (blade 2, node 2), m
         93    1.519E+02                                 F               0         Z-component position of node 31 (blade 2, node 2), m
         94    2.794E+01                                 F               0         X-component position of node 32 (blade 2, node 3), m
         95    1.698E+01                                 F               0         Y-component position of node 32 (blade 2, node 3), m
         96    1.588E+02                                 F               0         Z-component position of node 32 (blade 2, node 3), m
         97    2.827E+01                                 F               0         X-component position of node 33 (blade 2, node 4), m
         98    2.054E+01                                 F               0         Y-component position of node 33 (blade 2, node 4), m
         99    1.603E+02                                 F               0         Z-component position of node 33 (blade 2, node 4), m
        100    2.861E+01                                 F               0         X-component position of node 34 (blade 2, node 5), m
        101    2.410E+01                                 F               0         Y-component position of node 34 (blade 2, node 5), m
        102    1.618E+02                                 F               0         Z-component position of node 34 (blade 2, node 5), m
        103    2.894E+01                                 F               0         X-component position of node 35 (blade 2, node 6), m
        104    2.766E+01                                 F               0         Y-component position of node 35 (blade 2, node 6), m
        105    1.632E+02                                 F               0         Z-component position of node 35 (blade 2, node 6), m
        106    2.928E+01                                 F               0         X-component position of node 36 (blade 2, node 7), m
        107    3.122E+01                                 F               0         Y-component position of node 36 (blade 2, node 7), m
        108    1.647E+02                                 F               0         Z-component position of node 36 (blade 2, node 7), m
        109    2.961E+01                                 F               0         X-component position of node 37 (blade 2, node 8), m
        110    3.478E+01                                 F               0         Y-component position of node 37 (blade 2, node 8), m
        111    1.662E+02                                 F               0         Z-component position of node 37 (blade 2, node 8), m
        112    2.995E+01                                 F               0         X-component position of node 38 (blade 2, node 9), m
        113    3.834E+01                                 F               0         Y-component position of node 38 (blade 2, node 9), m
        114    1.677E+02                                 F               0         Z-component position of node 38 (blade 2, node 9), m
        115    3.028E+01                                 F               0         X-component position of node 39 (blade 2, node 10), m
        116    4.189E+01                                 F               0         Y-component position of node 39 (blade 2, node 10), m
        117    1.691E+02                                 F               0         Z-component position of node 39 (blade 2, node 10), m
        118    3.062E+01                                 F               0         X-component position of node 40 (blade 2, node 11), m
        119    4.545E+01                                 F               0         Y-component position of node 40 (blade 2, node 11), m
        120    1.706E+02                                 F               0         Z-component position of node 40 (blade 2, node 11), m
        121    3.095E+01                                 F               0         X-component position of node 41 (blade 2, node 12), m
        122    4.901E+01                                 F               0         Y-component position of node 41 (blade 2, node 12), m
        123    1.721E+02                                 F               0         Z-component position of node 41 (blade 2, node 12), m
        124    3.129E+01                                 F               0         X-component position of node 42 (blade 2, node 13), m
        125    5.257E+01                                 F               0         Y-component position of node 42 (blade 2, node 13), m
        126    1.736E+02                                 F               0         Z-component position of node 42 (blade 2, node 13), m
        127    3.162E+01                                 F               0         X-component position of node 43 (blade 2, node 14), m
        128    5.613E+01                                 F               0         Y-component position of node 43 (blade 2, node 14), m
        129    1.750E+02                                 F               0         Z-component position of node 43 (blade 2, node 14), m
        130    3.196E+01                                 F               0         X-component position of node 44 (blade 2, node 15), m
        131    5.969E+01                                 F               0         Y-component position of node 44 (blade 2, node 15), m
        132    1.765E+02                                 F               0         Z-component position of node 44 (blade 2, node 15), m
        133    3.229E+01                                 F               0         X-component position of node 45 (blade 2, node 16), m
        134    6.325E+01                                 F               0         Y-component position of node 45 (blade 2, node 16), m
        135    1.780E+02                                 F               0         Z-component position of node 45 (blade 2, node 16), m
        136    3.263E+01                                 F               0         X-component position of node 46 (blade 2, node 17), m
        137    6.681E+01                                 F               0         Y-component position of node 46 (blade 2, node 17), m
        138    1.795E+02                                 F               0         Z-component position of node 46 (blade 2, node 17), m
        139    3.296E+01                                 F               0         X-component position of node 47 (blade 2, node 18), m
        140    7.037E+01                                 F               0         Y-component position of node 47 (blade 2, node 18), m
        141    1.809E+02                                 F               0         Z-component position of node 47 (blade 2, node 18), m
        142    3.330E+01                                 F               0         X-component position of node 48 (blade 2, node 19), m
        143    7.393E+01                                 F               0         Y-component position of node 48 (blade 2, node 19), m
        144    1.824E+02                                 F               0         Z-component position of node 48 (blade 2, node 19), m
        145    3.363E+01                                 F               0         X-component position of node 49 (blade 2, node 20), m
        146    7.749E+01                                 F               0         Y-component position of node 49 (blade 2, node 20), m
        147    1.839E+02                                 F               0         Z-component position of node 49 (blade 2, node 20), m
        148    3.397E+01                                 F               0         X-component position of node 50 (blade 2, node 21), m
        149    8.105E+01                                 F               0         Y-component position of node 50 (blade 2, node 21), m
        150    1.854E+02                                 F               0         Z-component position of node 50 (blade 2, node 21), m
        151    3.430E+01                                 F               0         X-component position of node 51 (blade 2, node 22), m
        152    8.461E+01                                 F               0         Y-component position of node 51 (blade 2, node 22), m
        153    1.868E+02                                 F               0         Z-component position of node 51 (blade 2, node 22), m
        154    3.463E+01                                 F               0         X-component position of node 52 (blade 2, node 23), m
        155    8.817E+01                                 F               0         Y-component position of node 52 (blade 2, node 23), m
        156    1.883E+02                                 F               0         Z-component position of node 52 (blade 2, node 23), m
        157    3.497E+01                                 F               0         X-component position of node 53 (blade 2, node 24), m
        158    9.173E+01                                 F               0         Y-component position of node 53 (blade 2, node 24), m
        159    1.898E+02                                 F               0         Z-component position of node 53 (blade 2, node 24), m
        160    3.530E+01                                 F               0         X-component position of node 54 (blade 2, node 25), m
        161    9.529E+01                                 F               0         Y-component position of node 54 (blade 2, node 25), m
        162    1.913E+02                                 F               0         Z-component position of node 54 (blade 2, node 25), m
        163    3.564E+01                                 F               0         X-component position of node 55 (blade 2, node 26), m
        164    9.885E+01                                 F               0         Y-component position of node 55 (blade 2, node 26), m
        165    1.927E+02                                 F               0         Z-component position of node 55 (blade 2, node 26), m
        166    3.597E+01                                 F               0         X-component position of node 56 (blade 2, node 27), m
        167    1.024E+02                                 F               0         Y-component position of node 56 (blade 2, node 27), m
        168    1.942E+02                                 F               0         Z-component position of node 56 (blade 2, node 27), m
        169    3.626E+01                                 F               0         X-component position of node 57 (blade 2, node 28), m
        170    1.054E+02                                 F               0         Y-component position of node 57 (blade 2, node 28), m
        171    1.955E+02                                 F               0         Z-component position of node 57 (blade 2, node 28), m
        172    2.675E+01                                 F               0         X-component position of node 58 (blade 3, node 1), m
        173   -1.048E+01                                 F               0         Y-component position of node 58 (blade 3, node 1), m
        174    1.525E+02                                 F               0         Z-component position of node 58 (blade 3, node 1), m
        175    2.698E+01                                 F               0         X-component position of node 59 (blade 3, node 2), m
        176   -1.155E+01                                 F               0         Y-component position of node 59 (blade 3, node 2), m
        177    1.532E+02                                 F               0         Z-component position of node 59 (blade 3, node 2), m
        178    3.019E+01                                 F               0         X-component position of node 60 (blade 3, node 3), m
        179   -2.604E+01                                 F               0         Y-component position of node 60 (blade 3, node 3), m
        180    1.637E+02                                 F               0         Z-component position of node 60 (blade 3, node 3), m
        181    3.087E+01                                 F               0         X-component position of node 61 (blade 3, node 4), m
        182   -2.913E+01                                 F               0         Y-component position of node 61 (blade 3, node 4), m
        183    1.659E+02                                 F               0         Z-component position of node 61 (blade 3, node 4), m
        184    3.155E+01                                 F               0         X-component position of node 62 (blade 3, node 5), m
        185   -3.222E+01                                 F               0         Y-component position of node 62 (blade 3, node 5), m
        186    1.681E+02                                 F               0         Z-component position of node 62 (blade 3, node 5), m
        187    3.224E+01                                 F               0         X-component position of node 63 (blade 3, node 6), m
        188   -3.530E+01                                 F               0         Y-component position of node 63 (blade 3, node 6), m
        189    1.703E+02                                 F               0         Z-component position of node 63 (blade 3, node 6), m
        190    3.292E+01                                 F               0         X-component position of node 64 (blade 3, node 7), m
        191   -3.839E+01                                 F               0         Y-component position of node 64 (blade 3, node 7), m
        192    1.726E+02                                 F               0         Z-component position of node 64 (blade 3, node 7), m
        193    3.360E+01                                 F               0         X-component position of node 65 (blade 3, node 8), m
        194   -4.148E+01                                 F               0         Y-component position of node 65 (blade 3, node 8), m
        195    1.748E+02                                 F               0         Z-component position of node 65 (blade 3, node 8), m
        196    3.429E+01                                 F               0         X-component position of node 66 (blade 3, node 9), m
        197   -4.457E+01                                 F               0         Y-component position of node 66 (blade 3, node 9), m
        198    1.770E+02                                 F               0         Z-component position of node 66 (blade 3, node 9), m
        199    3.497E+01                                 F               0         X-component position of node 67 (blade 3, node 10), m
        200   -4.765E+01                                 F               0         Y-component position of node 67 (blade 3, node 10), m
        201    1.793E+02                                 F               0         Z-component position of node 67 (blade 3, node 10), m
        202    3.565E+01                                 F               0         X-component position of node 68 (blade 3, node 11), m
        203   -5.074E+01                                 F               0         Y-component position of node 68 (blade 3, node 11), m
        204    1.815E+02                                 F               0         Z-component position of node 68 (blade 3, node 11), m
        205    3.634E+01                                 F               0         X-component position of node 69 (blade 3, node 12), m
        206   -5.383E+01                                 F               0         Y-component position of node 69 (blade 3, node 12), m
        207    1.837E+02                                 F               0         Z-component position of node 69 (blade 3, node 12), m
        208    3.702E+01                                 F               0         X-component position of node 70 (blade 3, node 13), m
        209   -5.692E+01                                 F               0         Y-component position of node 70 (blade 3, node 13), m
        210    1.859E+02                                 F               0         Z-component position of node 70 (blade 3, node 13), m
        211    3.770E+01                                 F               0         X-component position of node 71 (blade 3, node 14), m