
Linearized model: Predictions were generated on 19-Dec-2023 at 09:27:32 using OpenFAST, compiled as a 64-bit application using single precision at commit v3.5.1
 linked with  NWTC Subroutine Library; ElastoDyn; InflowWind; AeroDyn; ServoDyn; HydroDyn; MoorDyn (v2.0.0, 2023-09-18)

Description from the FAST input file: CCT-9 Campign 4 model. Input files to be run with OpenFAST 3.5.0. GitHub branch from Lu Wang (https://github.com/luwang00/openfast/tree/dev) compiled on March 7, 2023.

Simulation information:
   Simulation time:                  1003.5000 s
   Rotor Speed:                         1.0411 rad/s
   Azimuth:                             2.4881 rad
   Wind Speed:                         12.0000 m/s
   Number of continuous states:         0
   Number of discrete states:           0
   Number of constraint states:         0
   Number of inputs:                  303
   Number of outputs:                   1
   Jacobians included in this file?    No

Order of inputs:
     Column   Operating Point                     Rotating Frame? Derivative Order Description
   ---------- ---------------                     --------------- ---------------- -----------
          1   -1.080E+01                                 F               0         X-component position of node 1 (hub), m
          2    0.000E+00                                 F               0         Y-component position of node 1 (hub), m
          3    1.497E+02                                 F               0         Z-component position of node 1 (hub), m
          4    2.462E+01                                 F               0         X-component position of node 2 (blade 1, node 1), m
          5   -9.212E+00                                 F               0         Y-component position of node 2 (blade 1, node 1), m
          6    1.449E+02                                 F               0         Z-component position of node 2 (blade 1, node 1), m
          7    2.434E+01                                 F               0         X-component position of node 3 (blade 1, node 2), m
          8   -9.984E+00                                 F               0         Y-component position of node 3 (blade 1, node 2), m
          9    1.438E+02                                 F               0         Z-component position of node 3 (blade 1, node 2), m
         10    2.059E+01                                 F               0         X-component position of node 4 (blade 1, node 3), m
         11   -2.049E+01                                 F               0         Y-component position of node 4 (blade 1, node 3), m
         12    1.295E+02                                 F               0         Z-component position of node 4 (blade 1, node 3), m
         13    1.979E+01                                 F               0         X-component position of node 5 (blade 1, node 4), m
         14   -2.273E+01                                 F               0         Y-component position of node 5 (blade 1, node 4), m
         15    1.265E+02                                 F               0         Z-component position of node 5 (blade 1, node 4), m
         16    1.899E+01                                 F               0         X-component position of node 6 (blade 1, node 5), m
         17   -2.496E+01                                 F               0         Y-component position of node 6 (blade 1, node 5), m
         18    1.234E+02                                 F               0         Z-component position of node 6 (blade 1, node 5), m
         19    1.819E+01                                 F               0         X-component position of node 7 (blade 1, node 6), m
         20   -2.720E+01                                 F               0         Y-component position of node 7 (blade 1, node 6), m
         21    1.204E+02                                 F               0         Z-component position of node 7 (blade 1, node 6), m
         22    1.739E+01                                 F               0         X-component position of node 8 (blade 1, node 7), m
         23   -2.944E+01                                 F               0         Y-component position of node 8 (blade 1, node 7), m
         24    1.173E+02                                 F               0         Z-component position of node 8 (blade 1, node 7), m
         25    1.659E+01                                 F               0         X-component position of node 9 (blade 1, node 8), m
         26   -3.168E+01                                 F               0         Y-component position of node 9 (blade 1, node 8), m
         27    1.143E+02                                 F               0         Z-component position of node 9 (blade 1, node 8), m
         28    1.579E+01                                 F               0         X-component position of node 10 (blade 1, node 9), m
         29   -3.392E+01                                 F               0         Y-component position of node 10 (blade 1, node 9), m
         30    1.112E+02                                 F               0         Z-component position of node 10 (blade 1, node 9), m
         31    1.499E+01                                 F               0         X-component position of node 11 (blade 1, node 10), m
         32   -3.615E+01                                 F               0         Y-component position of node 11 (blade 1, node 10), m
         33    1.082E+02                                 F               0         Z-component position of node 11 (blade 1, node 10), m
         34    1.419E+01                                 F               0         X-component position of node 12 (blade 1, node 11), m
         35   -3.839E+01                                 F               0         Y-component position of node 12 (blade 1, node 11), m
         36    1.051E+02                                 F               0         Z-component position of node 12 (blade 1, node 11), m
         37    1.339E+01                                 F               0         X-component position of node 13 (blade 1, node 12), m
         38   -4.063E+01                                 F               0         Y-component position of node 13 (blade 1, node 12), m
         39    1.021E+02                                 F               0         Z-component position of node 13 (blade 1, node 12), m
         40    1.259E+01                                 F               0         X-component position of node 14 (blade 1, node 13), m
         41   -4.287E+01                                 F               0         Y-component position of node 14 (blade 1, node 13), m
         42    9.901E+01                                 F               0         Z-component position of node 14 (blade 1, node 13), m
         43    1.179E+01                                 F               0         X-component position of node 15 (blade 1, node 14), m
         44   -4.511E+01                                 F               0         Y-component position of node 15 (blade 1, node 14), m
         45    9.595E+01                                 F               0         Z-component position of node 15 (blade 1, node 14), m
         46    1.099E+01                                 F               0         X-component position of node 16 (blade 1, node 15), m
         47   -4.734E+01                                 F               0         Y-component position of node 16 (blade 1, node 15), m
         48    9.290E+01                                 F               0         Z-component position of node 16 (blade 1, node 15), m
         49    1.019E+01                                 F               0         X-component position of node 17 (blade 1, node 16), m
         50   -4.958E+01                                 F               0         Y-component position of node 17 (blade 1, node 16), m
         51    8.985E+01                                 F               0         Z-component position of node 17 (blade 1, node 16), m
         52    9.387E+00                                 F               0         X-component position of node 18 (blade 1, node 17), m
         53   -5.182E+01                                 F               0         Y-component position of node 18 (blade 1, node 17), m
         54    8.680E+01                                 F               0         Z-component position of node 18 (blade 1, node 17), m
         55    8.587E+00                                 F               0         X-component position of node 19 (blade 1, node 18), m
         56   -5.406E+01                                 F               0         Y-component position of node 19 (blade 1, node 18), m
         57    8.375E+01                                 F               0         Z-component position of node 19 (blade 1, node 18), m
         58    7.787E+00                                 F               0         X-component position of node 20 (blade 1, node 19), m
         59   -5.630E+01                                 F               0         Y-component position of node 20 (blade 1, node 19), m
         60    8.070E+01                                 F               0         Z-component position of node 20 (blade 1, node 19), m
         61    6.987E+00                                 F               0         X-component position of node 21 (blade 1, node 20), m
         62   -5.853E+01                                 F               0         Y-component position of node 21 (blade 1, node 20), m
         63    7.765E+01                                 F               0         Z-component position of node 21 (blade 1, node 20), m
         64    6.187E+00                                 F               0         X-component position of node 22 (blade 1, node 21), m
         65   -6.077E+01                                 F               0         Y-component position of node 22 (blade 1, node 21), m
         66    7.460E+01                                 F               0         Z-component position of node 22 (blade 1, node 21), m
         67    5.387E+00                                 F               0         X-component position of node 23 (blade 1, node 22), m
         68   -6.301E+01                                 F               0         Y-component position of node 23 (blade 1, node 22), m
         69    7.154E+01                                 F               0         Z-component position of node 23 (blade 1, node 22), m
         70    4.587E+00                                 F               0         X-component position of node 24 (blade 1, node 23), m
         71   -6.525E+01                                 F               0         Y-component position of node 24 (blade 1, node 23), m
         72    6.849E+01                                 F               0         Z-component position of node 24 (blade 1, node 23), m
         73    3.786E+00                                 F               0         X-component position of node 25 (blade 1, node 24), m
         74   -6.749E+01                                 F               0         Y-component position of node 25 (blade 1, node 24), m
         75    6.544E+01                                 F               0         Z-component position of node 25 (blade 1, node 24), m
         76    2.986E+00                                 F               0         X-component position of node 26 (blade 1, node 25), m
         77   -6.972E+01                                 F               0         Y-component position of node 26 (blade 1, node 25), m
         78    6.239E+01                                 F               0         Z-component position of node 26 (blade 1, node 25), m
         79    2.186E+00                                 F               0         X-component position of node 27 (blade 1, node 26), m
         80   -7.196E+01                                 F               0         Y-component position of node 27 (blade 1, node 26), m
         81    5.934E+01                                 F               0         Z-component position of node 27 (blade 1, node 26), m
         82    1.386E+00                                 F               0         X-component position of node 28 (blade 1, node 27), m
         83   -7.420E+01                                 F               0         Y-component position of node 28 (blade 1, node 27), m
         84    5.629E+01                                 F               0         Z-component position of node 28 (blade 1, node 27), m
         85    7.077E-01                                 F               0         X-component position of node 29 (blade 1, node 28), m
         86   -7.610E+01                                 F               0         Y-component position of node 29 (blade 1, node 28), m
         87    5.370E+01                                 F               0         Z-component position of node 29 (blade 1, node 28), m
         88    2.552E+01                                 F               0         X-component position of node 30 (blade 2, node 1), m
         89   -4.918E-01                                 F               0         Y-component position of node 30 (blade 2, node 1), m
         90    1.488E+02                                 F               0         Z-component position of node 30 (blade 2, node 1), m
         91    2.546E+01                                 F               0         X-component position of node 31 (blade 2, node 2), m
         92    8.370E-01                                 F               0         Y-component position of node 31 (blade 2, node 2), m
         93    1.487E+02                                 F               0         Z-component position of node 31 (blade 2, node 2), m
         94    2.465E+01                                 F               0         X-component position of node 32 (blade 2, node 3), m
         95    1.891E+01                                 F               0         Y-component position of node 32 (blade 2, node 3), m
         96    1.471E+02                                 F               0         Z-component position of node 32 (blade 2, node 3), m
         97    2.448E+01                                 F               0         X-component position of node 33 (blade 2, node 4), m
         98    2.276E+01                                 F               0         Y-component position of node 33 (blade 2, node 4), m
         99    1.468E+02                                 F               0         Z-component position of node 33 (blade 2, node 4), m
        100    2.431E+01                                 F               0         X-component position of node 34 (blade 2, node 5), m
        101    2.661E+01                                 F               0         Y-component position of node 34 (blade 2, node 5), m
        102    1.465E+02                                 F               0         Z-component position of node 34 (blade 2, node 5), m
        103    2.414E+01                                 F               0         X-component position of node 35 (blade 2, node 6), m
        104    3.046E+01                                 F               0         Y-component position of node 35 (blade 2, node 6), m
        105    1.462E+02                                 F               0         Z-component position of node 35 (blade 2, node 6), m
        106    2.397E+01                                 F               0         X-component position of node 36 (blade 2, node 7), m
        107    3.431E+01                                 F               0         Y-component position of node 36 (blade 2, node 7), m
        108    1.458E+02                                 F               0         Z-component position of node 36 (blade 2, node 7), m
        109    2.379E+01                                 F               0         X-component position of node 37 (blade 2, node 8), m
        110    3.816E+01                                 F               0         Y-component position of node 37 (blade 2, node 8), m
        111    1.455E+02                                 F               0         Z-component position of node 37 (blade 2, node 8), m
        112    2.362E+01                                 F               0         X-component position of node 38 (blade 2, node 9), m
        113    4.201E+01                                 F               0         Y-component position of node 38 (blade 2, node 9), m
        114    1.452E+02                                 F               0         Z-component position of node 38 (blade 2, node 9), m
        115    2.345E+01                                 F               0         X-component position of node 39 (blade 2, node 10), m
        116    4.586E+01                                 F               0         Y-component position of node 39 (blade 2, node 10), m
        117    1.449E+02                                 F               0         Z-component position of node 39 (blade 2, node 10), m
        118    2.328E+01                                 F               0         X-component position of node 40 (blade 2, node 11), m
        119    4.971E+01                                 F               0         Y-component position of node 40 (blade 2, node 11), m
        120    1.445E+02                                 F               0         Z-component position of node 40 (blade 2, node 11), m
        121    2.311E+01                                 F               0         X-component position of node 41 (blade 2, node 12), m
        122    5.356E+01                                 F               0         Y-component position of node 41 (blade 2, node 12), m
        123    1.442E+02                                 F               0         Z-component position of node 41 (blade 2, node 12), m
        124    2.293E+01                                 F               0         X-component position of node 42 (blade 2, node 13), m
        125    5.741E+01                                 F               0         Y-component position of node 42 (blade 2, node 13), m
        126    1.439E+02                                 F               0         Z-component position of node 42 (blade 2, node 13), m
        127    2.276E+01                                 F               0         X-component position of node 43 (blade 2, node 14), m
        128    6.126E+01                                 F               0         Y-component position of node 43 (blade 2, node 14), m
        129    1.435E+02                                 F               0         Z-component position of node 43 (blade 2, node 14), m
        130    2.259E+01                                 F               0         X-component position of node 44 (blade 2, node 15), m
        131    6.511E+01                                 F               0         Y-component position of node 44 (blade 2, node 15), m
        132    1.432E+02                                 F               0         Z-component position of node 44 (blade 2, node 15), m
        133    2.242E+01                                 F               0         X-component position of node 45 (blade 2, node 16), m
        134    6.896E+01                                 F               0         Y-component position of node 45 (blade 2, node 16), m
        135    1.429E+02                                 F               0         Z-component position of node 45 (blade 2, node 16), m
        136    2.225E+01                                 F               0         X-component position of node 46 (blade 2, node 17), m
        137    7.281E+01                                 F               0         Y-component position of node 46 (blade 2, node 17), m
        138    1.426E+02                                 F               0         Z-component position of node 46 (blade 2, node 17), m
        139    2.208E+01                                 F               0         X-component position of node 47 (blade 2, node 18), m
        140    7.666E+01                                 F               0         Y-component position of node 47 (blade 2, node 18), m
        141    1.422E+02                                 F               0         Z-component position of node 47 (blade 2, node 18), m
        142    2.190E+01                                 F               0         X-component position of node 48 (blade 2, node 19), m
        143    8.051E+01                                 F               0         Y-component position of node 48 (blade 2, node 19), m
        144    1.419E+02                                 F               0         Z-component position of node 48 (blade 2, node 19), m
        145    2.173E+01                                 F               0         X-component position of node 49 (blade 2, node 20), m
        146    8.436E+01                                 F               0         Y-component position of node 49 (blade 2, node 20), m
        147    1.416E+02                                 F               0         Z-component position of node 49 (blade 2, node 20), m
        148    2.156E+01                                 F               0         X-component position of node 50 (blade 2, node 21), m
        149    8.821E+01                                 F               0         Y-component position of node 50 (blade 2, node 21), m
        150    1.413E+02                                 F               0         Z-component position of node 50 (blade 2, node 21), m
        151    2.139E+01                                 F               0         X-component position of node 51 (blade 2, node 22), m
        152    9.206E+01                                 F               0         Y-component position of node 51 (blade 2, node 22), m
        153    1.409E+02                                 F               0         Z-component position of node 51 (blade 2, node 22), m
        154    2.122E+01                                 F               0         X-component position of node 52 (blade 2, node 23), m
        155    9.591E+01                                 F               0         Y-component position of node 52 (blade 2, node 23), m
        156    1.406E+02                                 F               0         Z-component position of node 52 (blade 2, node 23), m
        157    2.104E+01                                 F               0         X-component position of node 53 (blade 2, node 24), m
        158    9.976E+01                                 F               0         Y-component position of node 53 (blade 2, node 24), m
        159    1.403E+02                                 F               0         Z-component position of node 53 (blade 2, node 24), m
        160    2.087E+01                                 F               0         X-component position of node 54 (blade 2, node 25), m
        161    1.036E+02                                 F               0         Y-component position of node 54 (blade 2, node 25), m
        162    1.399E+02                                 F               0         Z-component position of node 54 (blade 2, node 25), m
        163    2.070E+01                                 F               0         X-component position of node 55 (blade 2, node 26), m
        164    1.075E+02                                 F               0         Y-component position of node 55 (blade 2, node 26), m
        165    1.396E+02                                 F               0         Z-component position of node 55 (blade 2, node 26), m
        166    2.053E+01                                 F               0         X-component position of node 56 (blade 2, node 27), m
        167    1.113E+02                                 F               0         Y-component position of node 56 (blade 2, node 27), m
        168    1.393E+02                                 F               0         Z-component position of node 56 (blade 2, node 27), m
        169    2.038E+01                                 F               0         X-component position of node 57 (blade 2, node 28), m
        170    1.146E+02                                 F               0         Y-component position of node 57 (blade 2, node 28), m
        171    1.390E+02                                 F               0         Z-component position of node 57 (blade 2, node 28), m
        172    2.716E+01                                 F               0         X-component position of node 58 (blade 3, node 1), m
        173   -8.315E+00                                 F               0         Y-component position of node 58 (blade 3, node 1), m
        174    1.541E+02                                 F               0         Z-component position of node 58 (blade 3, node 1), m
        175    2.749E+01                                 F               0         X-component position of node 59 (blade 3, node 2), m
        176   -8.872E+00                                 F               0         Y-component position of node 59 (blade 3, node 2), m
        177    1.553E+02                                 F               0         Z-component position of node 59 (blade 3, node 2), m
        178    3.206E+01                                 F               0         X-component position of node 60 (blade 3, node 3), m
        179   -1.644E+01                                 F               0         Y-component position of node 60 (blade 3, node 3), m
        180    1.711E+02                                 F               0         Z-component position of node 60 (blade 3, node 3), m
        181    3.303E+01                                 F               0         X-component position of node 61 (blade 3, node 4), m
        182   -1.805E+01                                 F               0         Y-component position of node 61 (blade 3, node 4), m
        183    1.745E+02                                 F               0         Z-component position of node 61 (blade 3, node 4), m
        184    3.400E+01                                 F               0         X-component position of node 62 (blade 3, node 5), m
        185   -1.966E+01                                 F               0         Y-component position of node 62 (blade 3, node 5), m
        186    1.779E+02                                 F               0         Z-component position of node 62 (blade 3, node 5), m
        187    3.497E+01                                 F               0         X-component position of node 63 (blade 3, node 6), m
        188   -2.127E+01                                 F               0         Y-component position of node 63 (blade 3, node 6), m
        189    1.813E+02                                 F               0         Z-component position of node 63 (blade 3, node 6), m
        190    3.594E+01                                 F               0         X-component position of node 64 (blade 3, node 7), m
        191   -2.289E+01                                 F               0         Y-component position of node 64 (blade 3, node 7), m
        192    1.846E+02                                 F               0         Z-component position of node 64 (blade 3, node 7), m
        193    3.692E+01                                 F               0         X-component position of node 65 (blade 3, node 8), m
        194   -2.450E+01                                 F               0         Y-component position of node 65 (blade 3, node 8), m
        195    1.880E+02                                 F               0         Z-component position of node 65 (blade 3, node 8), m
        196    3.789E+01                                 F               0         X-component position of node 66 (blade 3, node 9), m
        197   -2.611E+01                                 F               0         Y-component position of node 66 (blade 3, node 9), m
        198    1.914E+02                                 F               0         Z-component position of node 66 (blade 3, node 9), m
        199    3.886E+01                                 F               0         X-component position of node 67 (blade 3, node 10), m
        200   -2.772E+01                                 F               0         Y-component position of node 67 (blade 3, node 10), m
        201    1.948E+02                                 F               0         Z-component position of node 67 (blade 3, node 10), m
        202    3.983E+01                                 F               0         X-component position of node 68 (blade 3, node 11), m
        203   -2.933E+01                                 F               0         Y-component position of node 68 (blade 3, node 11), m
        204    1.982E+02                                 F               0         Z-component position of node 68 (blade 3, node 11), m
        205    4.080E+01                                 F               0         X-component position of node 69 (blade 3, node 12), m
        206   -3.095E+01                                 F               0         Y-component position of node 69 (blade 3, node 12), m
        207    2.015E+02                                 F               0         Z-component position of node 69 (blade 3, node 12), m
        208    4.178E+01                                 F               0         X-component position of node 70 (blade 3, node 13), m
        209   -3.256E+01                                 F               0         Y-component position of node 70 (blade 3, node 13), m
        210    2.049E+02                                 F               0         Z-component position of node 70 (blade 3, node 13), m
        211    4.275E+01                                 F               0         X-component position of node 71 (blade 3, node 14), m