
Linearized model: Predictions were generated on 19-Dec-2023 at 09:27:32 using OpenFAST, compiled as a 64-bit application using single precision at commit v3.5.1
 linked with  NWTC Subroutine Library; ElastoDyn; InflowWind; AeroDyn; ServoDyn; HydroDyn; MoorDyn (v2.0.0, 2023-09-18)

Description from the FAST input file: CCT-9 Campign 4 model. Input files to be run with OpenFAST 3.5.0. GitHub branch from Lu Wang (https://github.com/luwang00/openfast/tree/dev) compiled on March 7, 2023.

Simulation information:
   Simulation time:                  1002.5000 s
   Rotor Speed:                         1.0412 rad/s
   Azimuth:                             1.4470 rad
   Wind Speed:                         12.0000 m/s
   Number of continuous states:        22
   Number of discrete states:           0
   Number of constraint states:         0
   Number of inputs:                 1890
   Number of outputs:                  38
   Jacobians included in this file?    No

Order of continuous states:
   Row/Column Operating Point                     Rotating Frame? Derivative Order Description
   ---------- ---------------                     --------------- ---------------- -----------
          1    1.230E+01                                 F               2         Platform horizontal surge translation DOF (internal DOF index = DOF_Sg), m
          2   -2.053E-01                                 F               2         Platform horizontal sway translation DOF (internal DOF index = DOF_Sw), m
          3   -2.053E-01                                 F               2         Platform vertical heave translation DOF (internal DOF index = DOF_Hv), m
          4    3.761E-02                                 F               2         Platform roll tilt rotation DOF (internal DOF index = DOF_R), rad
          5    1.549E-01                                 F               2         Platform pitch tilt rotation DOF (internal DOF index = DOF_P), rad
          6    1.343E-02                                 F               2         Platform yaw rotation DOF (internal DOF index = DOF_Y), rad
          7    1.075E+00                                 F               2         1st tower fore-aft bending mode DOF (internal DOF index = DOF_TFA1), m
          8    1.356E-01                                 F               2         1st tower side-to-side bending mode DOF (internal DOF index = DOF_TSS1), m
          9    1.599E-03                                 F               2         2nd tower fore-aft bending mode DOF (internal DOF index = DOF_TFA2), m
         10    6.339E-05                                 F               2         2nd tower side-to-side bending mode DOF (internal DOF index = DOF_TSS2), m
         11    6.159E+00                                 F               2         Variable speed generator DOF (internal DOF index = DOF_GeAz), rad
         12   -1.151E-05                                 F               2         First time derivative of Platform horizontal surge translation DOF (internal DOF index = DOF_Sg), m/s
         13    9.612E-04                                 F               2         First time derivative of Platform horizontal sway translation DOF (internal DOF index = DOF_Sw), m/s
         14    4.430E-03                                 F               2         First time derivative of Platform vertical heave translation DOF (internal DOF index = DOF_Hv), m/s
         15    4.338E-04                                 F               2         First time derivative of Platform roll tilt rotation DOF (internal DOF index = DOF_R), rad/s
         16    5.222E-05                                 F               2         First time derivative of Platform pitch tilt rotation DOF (internal DOF index = DOF_P), rad/s
         17   -2.557E-04                                 F               2         First time derivative of Platform yaw rotation DOF (internal DOF index = DOF_Y), rad/s
         18   -6.430E-04                                 F               2         First time derivative of 1st tower fore-aft bending mode DOF (internal DOF index = DOF_TFA1), m/s
         19    4.137E-03                                 F               2         First time derivative of 1st tower side-to-side bending mode DOF (internal DOF index = DOF_TSS1), m/s
         20   -4.320E-06                                 F               2         First time derivative of 2nd tower fore-aft bending mode DOF (internal DOF index = DOF_TFA2), m/s
         21   -2.142E-06                                 F               2         First time derivative of 2nd tower side-to-side bending mode DOF (internal DOF index = DOF_TSS2), m/s
         22    1.041E+00                                 F               2         First time derivative of Variable speed generator DOF (internal DOF index = DOF_GeAz), rad/s

Order of continuous state derivatives:
   Row/Column Operating Point                     Rotating Frame? Derivative Order Description
   ---------- ---------------                     --------------- ---------------- -----------
          1   -1.151E-05                                 F               2         First time derivative of Platform horizontal surge translation DOF (internal DOF index = DOF_Sg), m/s
          2    9.612E-04                                 F               2         First time derivative of Platform horizontal sway translation DOF (internal DOF index = DOF_Sw), m/s
          3    4.430E-03                                 F               2         First time derivative of Platform vertical heave translation DOF (internal DOF index = DOF_Hv), m/s
          4    4.338E-04                                 F               2         First time derivative of Platform roll tilt rotation DOF (internal DOF index = DOF_R), rad/s
          5    5.222E-05                                 F               2         First time derivative of Platform pitch tilt rotation DOF (internal DOF index = DOF_P), rad/s
          6   -2.557E-04                                 F               2         First time derivative of Platform yaw rotation DOF (internal DOF index = DOF_Y), rad/s
          7   -6.430E-04                                 F               2         First time derivative of 1st tower fore-aft bending mode DOF (internal DOF index = DOF_TFA1), m/s
          8    4.137E-03                                 F               2         First time derivative of 1st tower side-to-side bending mode DOF (internal DOF index = DOF_TSS1), m/s
          9   -4.320E-06                                 F               2         First time derivative of 2nd tower fore-aft bending mode DOF (internal DOF index = DOF_TFA2), m/s
         10   -2.142E-06                                 F               2         First time derivative of 2nd tower side-to-side bending mode DOF (internal DOF index = DOF_TSS2), m/s
         11    1.041E+00                                 F               2         First time derivative of Variable speed generator DOF (internal DOF index = DOF_GeAz), rad/s
         12   -2.676E-04                                 F               2         First time derivative of First time derivative of Platform horizontal surge translation DOF (internal DOF index = DOF_Sg), m/s/s
         13   -3.259E-04                                 F               2         First time derivative of First time derivative of Platform horizontal sway translation DOF (internal DOF index = DOF_Sw), m/s/s
         14    1.286E-03                                 F               2         First time derivative of First time derivative of Platform vertical heave translation DOF (internal DOF index = DOF_Hv), m/s/s
         15    1.986E-04                                 F               2         First time derivative of First time derivative of Platform roll tilt rotation DOF (internal DOF index = DOF_R), rad/s/s
         16   -1.163E-05                                 F               2         First time derivative of First time derivative of Platform pitch tilt rotation DOF (internal DOF index = DOF_P), rad/s/s
         17   -4.226E-05                                 F               2         First time derivative of First time derivative of Platform yaw rotation DOF (internal DOF index = DOF_Y), rad/s/s
         18    4.847E-03                                 F               2         First time derivative of First time derivative of 1st tower fore-aft bending mode DOF (internal DOF index = DOF_TFA1), m/s/s
         19   -3.100E-04                                 F               2         First time derivative of First time derivative of 1st tower side-to-side bending mode DOF (internal DOF index = DOF_TSS1), m/s/s
         20    2.733E-05                                 F               2         First time derivative of First time derivative of 2nd tower fore-aft bending mode DOF (internal DOF index = DOF_TFA2), m/s/s
         21   -5.852E-08                                 F               2         First time derivative of First time derivative of 2nd tower side-to-side bending mode DOF (internal DOF index = DOF_TSS2), m/s/s
         22   -1.351E-04                                 F               2         First time derivative of First time derivative of Variable speed generator DOF (internal DOF index = DOF_GeAz), rad/s/s

Order of inputs:
     Column   Operating Point                     Rotating Frame? Derivative Order Description
   ---------- ---------------                     --------------- ---------------- -----------
          1    1.668E+02                                 F               0         Blade 1 X force, node 1, N
          2    2.123E+01                                 F               0         Blade 1 Y force, node 1, N
          3    1.756E+02                                 F               0         Blade 1 Z force, node 1, N
          4    5.464E+02                                 F               0         Blade 1 X force, node 2, N
          5    4.124E+01                                 F               0         Blade 1 Y force, node 2, N
          6    2.202E+02                                 F               0         Blade 1 Z force, node 2, N
          7    6.195E+02                                 F               0         Blade 1 X force, node 3, N
          8    3.500E+01                                 F               0         Blade 1 Y force, node 3, N
          9    1.023E+02                                 F               0         Blade 1 Z force, node 3, N
         10    7.527E+02                                 F               0         Blade 1 X force, node 4, N
         11    3.399E+01                                 F               0         Blade 1 Y force, node 4, N
         12    1.716E+01                                 F               0         Blade 1 Z force, node 4, N
         13    8.859E+02                                 F               0         Blade 1 X force, node 5, N
         14    3.298E+01                                 F               0         Blade 1 Y force, node 5, N
         15   -6.793E+01                                 F               0         Blade 1 Z force, node 5, N
         16    1.019E+03                                 F               0         Blade 1 X force, node 6, N
         17    3.197E+01                                 F               0         Blade 1 Y force, node 6, N
         18   -1.530E+02                                 F               0         Blade 1 Z force, node 6, N
         19    1.152E+03                                 F               0         Blade 1 X force, node 7, N
         20    3.096E+01                                 F               0         Blade 1 Y force, node 7, N
         21   -2.381E+02                                 F               0         Blade 1 Z force, node 7, N
         22    1.286E+03                                 F               0         Blade 1 X force, node 8, N
         23    2.995E+01                                 F               0         Blade 1 Y force, node 8, N
         24   -3.232E+02                                 F               0         Blade 1 Z force, node 8, N
         25    1.419E+03                                 F               0         Blade 1 X force, node 9, N
         26    2.893E+01                                 F               0         Blade 1 Y force, node 9, N
         27   -4.083E+02                                 F               0         Blade 1 Z force, node 9, N
         28    1.552E+03                                 F               0         Blade 1 X force, node 10, N
         29    2.792E+01                                 F               0         Blade 1 Y force, node 10, N
         30   -4.934E+02                                 F               0         Blade 1 Z force, node 10, N
         31    1.685E+03                                 F               0         Blade 1 X force, node 11, N
         32    2.691E+01                                 F               0         Blade 1 Y force, node 11, N
         33   -5.785E+02                                 F               0         Blade 1 Z force, node 11, N
         34    1.819E+03                                 F               0         Blade 1 X force, node 12, N
         35    2.590E+01                                 F               0         Blade 1 Y force, node 12, N
         36   -6.636E+02                                 F               0         Blade 1 Z force, node 12, N
         37    1.952E+03                                 F               0         Blade 1 X force, node 13, N
         38    2.489E+01                                 F               0         Blade 1 Y force, node 13, N
         39   -7.487E+02                                 F               0         Blade 1 Z force, node 13, N
         40    2.085E+03                                 F               0         Blade 1 X force, node 14, N
         41    2.388E+01                                 F               0         Blade 1 Y force, node 14, N
         42   -8.338E+02                                 F               0         Blade 1 Z force, node 14, N
         43    2.218E+03                                 F               0         Blade 1 X force, node 15, N
         44    2.286E+01                                 F               0         Blade 1 Y force, node 15, N
         45   -9.189E+02                                 F               0         Blade 1 Z force, node 15, N
         46    2.352E+03                                 F               0         Blade 1 X force, node 16, N
         47    2.185E+01                                 F               0         Blade 1 Y force, node 16, N
         48   -1.004E+03                                 F               0         Blade 1 Z force, node 16, N
         49    2.886E+03                                 F               0         Blade 1 X force, node 17, N
         50    2.439E+01                                 F               0         Blade 1 Y force, node 17, N
         51   -1.263E+03                                 F               0         Blade 1 Z force, node 17, N
         52    2.238E+03                                 F               0         Blade 1 X force, node 18, N
         53    1.955E+01                                 F               0         Blade 1 Y force, node 18, N
         54   -9.711E+02                                 F               0         Blade 1 Z force, node 18, N
         55    2.799E+03                                 F               0         Blade 1 X force, node 19, N
         56    2.620E+01                                 F               0         Blade 1 Y force, node 19, N
         57   -1.193E+03                                 F               0         Blade 1 Z force, node 19, N
         58    2.428E+03                                 F               0         Blade 1 X force, node 20, N
         59    2.408E+01                                 F               0         Blade 1 Y force, node 20, N
         60   -1.018E+03                                 F               0         Blade 1 Z force, node 20, N
         61    3.655E+03                                 F               0         Blade 1 X force, node 21, N
         62    3.855E+01                                 F               0         Blade 1 Y force, node 21, N
         63   -1.503E+03                                 F               0         Blade 1 Z force, node 21, N
         64    3.285E+03                                 F               0         Blade 1 X force, node 22, N
         65    3.674E+01                                 F               0         Blade 1 Y force, node 22, N
         66   -1.324E+03                                 F               0         Blade 1 Z force, node 22, N
         67    3.426E+03                                 F               0         Blade 1 X force, node 23, N
         68    4.018E+01                                 F               0         Blade 1 Y force, node 23, N
         69   -1.358E+03                                 F               0         Blade 1 Z force, node 23, N
         70    3.629E+03                                 F               0         Blade 1 X force, node 24, N
         71    4.440E+01                                 F               0         Blade 1 Y force, node 24, N
         72   -1.415E+03                                 F               0         Blade 1 Z force, node 24, N
         73    3.768E+03                                 F               0         Blade 1 X force, node 25, N
         74    4.802E+01                                 F               0         Blade 1 Y force, node 25, N
         75   -1.446E+03                                 F               0         Blade 1 Z force, node 25, N
         76    3.928E+03                                 F               0         Blade 1 X force, node 26, N
         77    5.191E+01                                 F               0         Blade 1 Y force, node 26, N
         78   -1.484E+03                                 F               0         Blade 1 Z force, node 26, N
         79    4.764E+03                                 F               0         Blade 1 X force, node 27, N
         80    6.517E+01                                 F               0         Blade 1 Y force, node 27, N
         81   -1.772E+03                                 F               0         Blade 1 Z force, node 27, N
         82    3.571E+03                                 F               0         Blade 1 X force, node 28, N
         83    5.044E+01                                 F               0         Blade 1 Y force, node 28, N
         84   -1.308E+03                                 F               0         Blade 1 Z force, node 28, N
         85    4.407E+03                                 F               0         Blade 1 X force, node 29, N
         86    6.384E+01                                 F               0         Blade 1 Y force, node 29, N
         87   -1.594E+03                                 F               0         Blade 1 Z force, node 29, N
         88    3.780E+03                                 F               0         Blade 1 X force, node 30, N
         89    5.604E+01                                 F               0         Blade 1 Y force, node 30, N
         90   -1.352E+03                                 F               0         Blade 1 Z force, node 30, N
         91    5.511E+03                                 F               0         Blade 1 X force, node 31, N
         92    8.380E+01                                 F               0         Blade 1 Y force, node 31, N
         93   -1.944E+03                                 F               0         Blade 1 Z force, node 31, N
         94    4.883E+03                                 F               0         Blade 1 X force, node 32, N
         95    7.609E+01                                 F               0         Blade 1 Y force, node 32, N
         96   -1.700E+03                                 F               0         Blade 1 Z force, node 32, N
         97    5.041E+03                                 F               0         Blade 1 X force, node 33, N
         98    8.022E+01                                 F               0         Blade 1 Y force, node 33, N
         99   -1.733E+03                                 F               0         Blade 1 Z force, node 33, N
        100    5.199E+03                                 F               0         Blade 1 X force, node 34, N
        101    8.438E+01                                 F               0         Blade 1 Y force, node 34, N
        102   -1.767E+03                                 F               0         Blade 1 Z force, node 34, N
        103    5.357E+03                                 F               0         Blade 1 X force, node 35, N
        104    8.858E+01                                 F               0         Blade 1 Y force, node 35, N
        105   -1.800E+03                                 F               0         Blade 1 Z force, node 35, N
        106    5.513E+03                                 F               0         Blade 1 X force, node 36, N
        107    9.278E+01                                 F               0         Blade 1 Y force, node 36, N
        108   -1.833E+03                                 F               0         Blade 1 Z force, node 36, N
        109    6.636E+03                                 F               0         Blade 1 X force, node 37, N
        110    1.136E+02                                 F               0         Blade 1 Y force, node 37, N
        111   -2.182E+03                                 F               0         Blade 1 Z force, node 37, N
        112    4.862E+03                                 F               0         Blade 1 X force, node 38, N
        113    8.460E+01                                 F               0         Blade 1 Y force, node 38, N
        114   -1.581E+03                                 F               0         Blade 1 Z force, node 38, N
        115    5.986E+03                                 F               0         Blade 1 X force, node 39, N
        116    1.055E+02                                 F               0         Blade 1 Y force, node 39, N
        117   -1.930E+03                                 F               0         Blade 1 Z force, node 39, N
        118    5.127E+03                                 F               0         Blade 1 X force, node 40, N
        119    9.148E+01                                 F               0         Blade 1 Y force, node 40, N
        120   -1.639E+03                                 F               0         Blade 1 Z force, node 40, N
        121    7.319E+03                                 F               0         Blade 1 X force, node 41, N
        122    1.324E+02                                 F               0         Blade 1 Y force, node 41, N
        123   -2.318E+03                                 F               0         Blade 1 Z force, node 41, N
        124    6.457E+03                                 F               0         Blade 1 X force, node 42, N
        125    1.184E+02                                 F               0         Blade 1 Y force, node 42, N
        126   -2.025E+03                                 F               0         Blade 1 Z force, node 42, N
        127    6.612E+03                                 F               0         Blade 1 X force, node 43, N
        128    1.226E+02                                 F               0         Blade 1 Y force, node 43, N
        129   -2.055E+03                                 F               0         Blade 1 Z force, node 43, N
        130    6.803E+03                                 F               0         Blade 1 X force, node 44, N
        131    1.276E+02                                 F               0         Blade 1 Y force, node 44, N
        132   -2.097E+03                                 F               0         Blade 1 Z force, node 44, N
        133    6.885E+03                                 F               0         Blade 1 X force, node 45, N
        134    1.306E+02                                 F               0         Blade 1 Y force, node 45, N
        135   -2.105E+03                                 F               0         Blade 1 Z force, node 45, N
        136    7.076E+03                                 F               0         Blade 1 X force, node 46, N
        137    1.356E+02                                 F               0         Blade 1 Y force, node 46, N
        138   -2.146E+03                                 F               0         Blade 1 Z force, node 46, N
        139    8.501E+03                                 F               0         Blade 1 X force, node 47, N
        140    1.646E+02                                 F               0         Blade 1 Y force, node 47, N
        141   -2.556E+03                                 F               0         Blade 1 Z force, node 47, N
        142    6.114E+03                                 F               0         Blade 1 X force, node 48, N
        143    1.195E+02                                 F               0         Blade 1 Y force, node 48, N
        144   -1.824E+03                                 F               0         Blade 1 Z force, node 48, N
        145    7.538E+03                                 F               0         Blade 1 X force, node 49, N
        146    1.486E+02                                 F               0         Blade 1 Y force, node 49, N
        147   -2.234E+03                                 F               0         Blade 1 Z force, node 49, N
        148    6.466E+03                                 F               0         Blade 1 X force, node 50, N
        149    1.284E+02                                 F               0         Blade 1 Y force, node 50, N
        150   -1.904E+03                                 F               0         Blade 1 Z force, node 50, N
        151    9.071E+03                                 F               0         Blade 1 X force, node 51, N
        152    1.817E+02                                 F               0         Blade 1 Y force, node 51, N
        153   -2.651E+03                                 F               0         Blade 1 Z force, node 51, N
        154    8.001E+03                                 F               0         Blade 1 X force, node 52, N
        155    1.616E+02                                 F               0         Blade 1 Y force, node 52, N
        156   -2.322E+03                                 F               0         Blade 1 Z force, node 52, N
        157    8.156E+03                                 F               0         Blade 1 X force, node 53, N
        158    1.660E+02                                 F               0         Blade 1 Y force, node 53, N
        159   -2.351E+03                                 F               0         Blade 1 Z force, node 53, N
        160    8.403E+03                                 F               0         Blade 1 X force, node 54, N
        161    1.722E+02                                 F               0         Blade 1 Y force, node 54, N
        162   -2.407E+03                                 F               0         Blade 1 Z force, node 54, N
        163    8.374E+03                                 F               0         Blade 1 X force, node 55, N
        164    1.729E+02                                 F               0         Blade 1 Y force, node 55, N
        165   -2.383E+03                                 F               0         Blade 1 Z force, node 55, N
        166    8.619E+03                                 F               0         Blade 1 X force, node 56, N
        167    1.791E+02                                 F               0         Blade 1 Y force, node 56, N
        168   -2.438E+03                                 F               0         Blade 1 Z force, node 56, N
        169    1.036E+04                                 F               0         Blade 1 X force, node 57, N
        170    2.168E+02                                 F               0         Blade 1 Y force, node 57, N
        171   -2.912E+03                                 F               0         Blade 1 Z force, node 57, N
        172    7.337E+03                                 F               0         Blade 1 X force, node 58, N
        173    1.546E+02                                 F               0         Blade 1 Y force, node 58, N
        174   -2.050E+03                                 F               0         Blade 1 Z force, node 58, N
        175    9.080E+03                                 F               0         Blade 1 X force, node 59, N
        176    1.923E+02                                 F               0         Blade 1 Y force, node 59, N
        177   -2.524E+03                                 F               0         Blade 1 Z force, node 59, N
        178    7.819E+03                                 F               0         Blade 1 X force, node 60, N
        179    1.664E+02                                 F               0         Blade 1 Y force, node 60, N
        180   -2.162E+03                                 F               0         Blade 1 Z force, node 60, N
        181    1.080E+04                                 F               0         Blade 1 X force, node 61, N
        182    2.313E+02                                 F               0         Blade 1 Y force, node 61, N
        183   -2.970E+03                                 F               0         Blade 1 Z force, node 61, N
        184    9.537E+03                                 F               0         Blade 1 X force, node 62, N