
Linearized model: Predictions were generated on 19-Dec-2023 at 09:27:32 using OpenFAST, compiled as a 64-bit application using single precision at commit v3.5.1
 linked with  NWTC Subroutine Library; ElastoDyn; InflowWind; AeroDyn; ServoDyn; HydroDyn; MoorDyn (v2.0.0, 2023-09-18)

Description from the FAST input file: CCT-9 Campign 4 model. Input files to be run with OpenFAST 3.5.0. GitHub branch from Lu Wang (https://github.com/luwang00/openfast/tree/dev) compiled on March 7, 2023.

Simulation information:
   Simulation time:                  1007.7000 s
   Rotor Speed:                         1.0407 rad/s
   Azimuth:                             0.5771 rad
   Wind Speed:                         12.0000 m/s
   Number of continuous states:         0
   Number of discrete states:           0
   Number of constraint states:         0
   Number of inputs:                  303
   Number of outputs:                   1
   Jacobians included in this file?    No

Order of inputs:
     Column   Operating Point                     Rotating Frame? Derivative Order Description
   ---------- ---------------                     --------------- ---------------- -----------
          1   -1.080E+01                                 F               0         X-component position of node 1 (hub), m
          2    0.000E+00                                 F               0         Y-component position of node 1 (hub), m
          3    1.497E+02                                 F               0         Z-component position of node 1 (hub), m
          4    2.705E+01                                 F               0         X-component position of node 2 (blade 1, node 1), m
          5   -9.793E+00                                 F               0         Y-component position of node 2 (blade 1, node 1), m
          6    1.536E+02                                 F               0         Z-component position of node 2 (blade 1, node 1), m
          7    2.735E+01                                 F               0         X-component position of node 3 (blade 1, node 2), m
          8   -1.057E+01                                 F               0         Y-component position of node 3 (blade 1, node 2), m
          9    1.546E+02                                 F               0         Z-component position of node 3 (blade 1, node 2), m
         10    3.152E+01                                 F               0         X-component position of node 4 (blade 1, node 3), m
         11   -2.107E+01                                 F               0         Y-component position of node 4 (blade 1, node 3), m
         12    1.688E+02                                 F               0         Z-component position of node 4 (blade 1, node 3), m
         13    3.240E+01                                 F               0         X-component position of node 5 (blade 1, node 4), m
         14   -2.331E+01                                 F               0         Y-component position of node 5 (blade 1, node 4), m
         15    1.719E+02                                 F               0         Z-component position of node 5 (blade 1, node 4), m
         16    3.329E+01                                 F               0         X-component position of node 6 (blade 1, node 5), m
         17   -2.555E+01                                 F               0         Y-component position of node 6 (blade 1, node 5), m
         18    1.749E+02                                 F               0         Z-component position of node 6 (blade 1, node 5), m
         19    3.417E+01                                 F               0         X-component position of node 7 (blade 1, node 6), m
         20   -2.779E+01                                 F               0         Y-component position of node 7 (blade 1, node 6), m
         21    1.779E+02                                 F               0         Z-component position of node 7 (blade 1, node 6), m
         22    3.506E+01                                 F               0         X-component position of node 8 (blade 1, node 7), m
         23   -3.003E+01                                 F               0         Y-component position of node 8 (blade 1, node 7), m
         24    1.809E+02                                 F               0         Z-component position of node 8 (blade 1, node 7), m
         25    3.595E+01                                 F               0         X-component position of node 9 (blade 1, node 8), m
         26   -3.227E+01                                 F               0         Y-component position of node 9 (blade 1, node 8), m
         27    1.840E+02                                 F               0         Z-component position of node 9 (blade 1, node 8), m
         28    3.683E+01                                 F               0         X-component position of node 10 (blade 1, node 9), m
         29   -3.451E+01                                 F               0         Y-component position of node 10 (blade 1, node 9), m
         30    1.870E+02                                 F               0         Z-component position of node 10 (blade 1, node 9), m
         31    3.772E+01                                 F               0         X-component position of node 11 (blade 1, node 10), m
         32   -3.674E+01                                 F               0         Y-component position of node 11 (blade 1, node 10), m
         33    1.900E+02                                 F               0         Z-component position of node 11 (blade 1, node 10), m
         34    3.861E+01                                 F               0         X-component position of node 12 (blade 1, node 11), m
         35   -3.898E+01                                 F               0         Y-component position of node 12 (blade 1, node 11), m
         36    1.931E+02                                 F               0         Z-component position of node 12 (blade 1, node 11), m
         37    3.949E+01                                 F               0         X-component position of node 13 (blade 1, node 12), m
         38   -4.122E+01                                 F               0         Y-component position of node 13 (blade 1, node 12), m
         39    1.961E+02                                 F               0         Z-component position of node 13 (blade 1, node 12), m
         40    4.038E+01                                 F               0         X-component position of node 14 (blade 1, node 13), m
         41   -4.346E+01                                 F               0         Y-component position of node 14 (blade 1, node 13), m
         42    1.991E+02                                 F               0         Z-component position of node 14 (blade 1, node 13), m
         43    4.127E+01                                 F               0         X-component position of node 15 (blade 1, node 14), m
         44   -4.570E+01                                 F               0         Y-component position of node 15 (blade 1, node 14), m
         45    2.021E+02                                 F               0         Z-component position of node 15 (blade 1, node 14), m
         46    4.215E+01                                 F               0         X-component position of node 16 (blade 1, node 15), m
         47   -4.794E+01                                 F               0         Y-component position of node 16 (blade 1, node 15), m
         48    2.052E+02                                 F               0         Z-component position of node 16 (blade 1, node 15), m
         49    4.304E+01                                 F               0         X-component position of node 17 (blade 1, node 16), m
         50   -5.018E+01                                 F               0         Y-component position of node 17 (blade 1, node 16), m
         51    2.082E+02                                 F               0         Z-component position of node 17 (blade 1, node 16), m
         52    4.393E+01                                 F               0         X-component position of node 18 (blade 1, node 17), m
         53   -5.242E+01                                 F               0         Y-component position of node 18 (blade 1, node 17), m
         54    2.112E+02                                 F               0         Z-component position of node 18 (blade 1, node 17), m
         55    4.481E+01                                 F               0         X-component position of node 19 (blade 1, node 18), m
         56   -5.466E+01                                 F               0         Y-component position of node 19 (blade 1, node 18), m
         57    2.142E+02                                 F               0         Z-component position of node 19 (blade 1, node 18), m
         58    4.570E+01                                 F               0         X-component position of node 20 (blade 1, node 19), m
         59   -5.689E+01                                 F               0         Y-component position of node 20 (blade 1, node 19), m
         60    2.173E+02                                 F               0         Z-component position of node 20 (blade 1, node 19), m
         61    4.659E+01                                 F               0         X-component position of node 21 (blade 1, node 20), m
         62   -5.913E+01                                 F               0         Y-component position of node 21 (blade 1, node 20), m
         63    2.203E+02                                 F               0         Z-component position of node 21 (blade 1, node 20), m
         64    4.747E+01                                 F               0         X-component position of node 22 (blade 1, node 21), m
         65   -6.137E+01                                 F               0         Y-component position of node 22 (blade 1, node 21), m
         66    2.233E+02                                 F               0         Z-component position of node 22 (blade 1, node 21), m
         67    4.836E+01                                 F               0         X-component position of node 23 (blade 1, node 22), m
         68   -6.361E+01                                 F               0         Y-component position of node 23 (blade 1, node 22), m
         69    2.263E+02                                 F               0         Z-component position of node 23 (blade 1, node 22), m
         70    4.925E+01                                 F               0         X-component position of node 24 (blade 1, node 23), m
         71   -6.585E+01                                 F               0         Y-component position of node 24 (blade 1, node 23), m
         72    2.294E+02                                 F               0         Z-component position of node 24 (blade 1, node 23), m
         73    5.013E+01                                 F               0         X-component position of node 25 (blade 1, node 24), m
         74   -6.809E+01                                 F               0         Y-component position of node 25 (blade 1, node 24), m
         75    2.324E+02                                 F               0         Z-component position of node 25 (blade 1, node 24), m
         76    5.102E+01                                 F               0         X-component position of node 26 (blade 1, node 25), m
         77   -7.033E+01                                 F               0         Y-component position of node 26 (blade 1, node 25), m
         78    2.354E+02                                 F               0         Z-component position of node 26 (blade 1, node 25), m
         79    5.191E+01                                 F               0         X-component position of node 27 (blade 1, node 26), m
         80   -7.257E+01                                 F               0         Y-component position of node 27 (blade 1, node 26), m
         81    2.385E+02                                 F               0         Z-component position of node 27 (blade 1, node 26), m
         82    5.279E+01                                 F               0         X-component position of node 28 (blade 1, node 27), m
         83   -7.480E+01                                 F               0         Y-component position of node 28 (blade 1, node 27), m
         84    2.415E+02                                 F               0         Z-component position of node 28 (blade 1, node 27), m
         85    5.354E+01                                 F               0         X-component position of node 29 (blade 1, node 28), m
         86   -7.670E+01                                 F               0         Y-component position of node 29 (blade 1, node 28), m
         87    2.440E+02                                 F               0         Z-component position of node 29 (blade 1, node 28), m
         88    2.447E+01                                 F               0         X-component position of node 30 (blade 2, node 1), m
         89   -8.894E+00                                 F               0         Y-component position of node 30 (blade 2, node 1), m
         90    1.444E+02                                 F               0         Z-component position of node 30 (blade 2, node 1), m
         91    2.416E+01                                 F               0         X-component position of node 31 (blade 2, node 2), m
         92   -9.450E+00                                 F               0         Y-component position of node 31 (blade 2, node 2), m
         93    1.432E+02                                 F               0         Z-component position of node 31 (blade 2, node 2), m
         94    1.989E+01                                 F               0         X-component position of node 32 (blade 2, node 3), m
         95   -1.701E+01                                 F               0         Y-component position of node 32 (blade 2, node 3), m
         96    1.273E+02                                 F               0         Z-component position of node 32 (blade 2, node 3), m
         97    1.898E+01                                 F               0         X-component position of node 33 (blade 2, node 4), m
         98   -1.862E+01                                 F               0         Y-component position of node 33 (blade 2, node 4), m
         99    1.239E+02                                 F               0         Z-component position of node 33 (blade 2, node 4), m
        100    1.807E+01                                 F               0         X-component position of node 34 (blade 2, node 5), m
        101   -2.023E+01                                 F               0         Y-component position of node 34 (blade 2, node 5), m
        102    1.205E+02                                 F               0         Z-component position of node 34 (blade 2, node 5), m
        103    1.716E+01                                 F               0         X-component position of node 35 (blade 2, node 6), m
        104   -2.184E+01                                 F               0         Y-component position of node 35 (blade 2, node 6), m
        105    1.171E+02                                 F               0         Z-component position of node 35 (blade 2, node 6), m
        106    1.625E+01                                 F               0         X-component position of node 36 (blade 2, node 7), m
        107   -2.346E+01                                 F               0         Y-component position of node 36 (blade 2, node 7), m
        108    1.137E+02                                 F               0         Z-component position of node 36 (blade 2, node 7), m
        109    1.534E+01                                 F               0         X-component position of node 37 (blade 2, node 8), m
        110   -2.507E+01                                 F               0         Y-component position of node 37 (blade 2, node 8), m
        111    1.103E+02                                 F               0         Z-component position of node 37 (blade 2, node 8), m
        112    1.443E+01                                 F               0         X-component position of node 38 (blade 2, node 9), m
        113   -2.668E+01                                 F               0         Y-component position of node 38 (blade 2, node 9), m
        114    1.069E+02                                 F               0         Z-component position of node 38 (blade 2, node 9), m
        115    1.352E+01                                 F               0         X-component position of node 39 (blade 2, node 10), m
        116   -2.829E+01                                 F               0         Y-component position of node 39 (blade 2, node 10), m
        117    1.035E+02                                 F               0         Z-component position of node 39 (blade 2, node 10), m
        118    1.261E+01                                 F               0         X-component position of node 40 (blade 2, node 11), m
        119   -2.990E+01                                 F               0         Y-component position of node 40 (blade 2, node 11), m
        120    1.001E+02                                 F               0         Z-component position of node 40 (blade 2, node 11), m
        121    1.170E+01                                 F               0         X-component position of node 41 (blade 2, node 12), m
        122   -3.151E+01                                 F               0         Y-component position of node 41 (blade 2, node 12), m
        123    9.671E+01                                 F               0         Z-component position of node 41 (blade 2, node 12), m
        124    1.079E+01                                 F               0         X-component position of node 42 (blade 2, node 13), m
        125   -3.312E+01                                 F               0         Y-component position of node 42 (blade 2, node 13), m
        126    9.332E+01                                 F               0         Z-component position of node 42 (blade 2, node 13), m
        127    9.876E+00                                 F               0         X-component position of node 43 (blade 2, node 14), m
        128   -3.473E+01                                 F               0         Y-component position of node 43 (blade 2, node 14), m
        129    8.992E+01                                 F               0         Z-component position of node 43 (blade 2, node 14), m
        130    8.965E+00                                 F               0         X-component position of node 44 (blade 2, node 15), m
        131   -3.635E+01                                 F               0         Y-component position of node 44 (blade 2, node 15), m
        132    8.652E+01                                 F               0         Z-component position of node 44 (blade 2, node 15), m
        133    8.055E+00                                 F               0         X-component position of node 45 (blade 2, node 16), m
        134   -3.796E+01                                 F               0         Y-component position of node 45 (blade 2, node 16), m
        135    8.313E+01                                 F               0         Z-component position of node 45 (blade 2, node 16), m
        136    7.145E+00                                 F               0         X-component position of node 46 (blade 2, node 17), m
        137   -3.957E+01                                 F               0         Y-component position of node 46 (blade 2, node 17), m
        138    7.973E+01                                 F               0         Z-component position of node 46 (blade 2, node 17), m
        139    6.235E+00                                 F               0         X-component position of node 47 (blade 2, node 18), m
        140   -4.118E+01                                 F               0         Y-component position of node 47 (blade 2, node 18), m
        141    7.634E+01                                 F               0         Z-component position of node 47 (blade 2, node 18), m
        142    5.324E+00                                 F               0         X-component position of node 48 (blade 2, node 19), m
        143   -4.279E+01                                 F               0         Y-component position of node 48 (blade 2, node 19), m
        144    7.294E+01                                 F               0         Z-component position of node 48 (blade 2, node 19), m
        145    4.414E+00                                 F               0         X-component position of node 49 (blade 2, node 20), m
        146   -4.440E+01                                 F               0         Y-component position of node 49 (blade 2, node 20), m
        147    6.954E+01                                 F               0         Z-component position of node 49 (blade 2, node 20), m
        148    3.504E+00                                 F               0         X-component position of node 50 (blade 2, node 21), m
        149   -4.601E+01                                 F               0         Y-component position of node 50 (blade 2, node 21), m
        150    6.615E+01                                 F               0         Z-component position of node 50 (blade 2, node 21), m
        151    2.594E+00                                 F               0         X-component position of node 51 (blade 2, node 22), m
        152   -4.762E+01                                 F               0         Y-component position of node 51 (blade 2, node 22), m
        153    6.275E+01                                 F               0         Z-component position of node 51 (blade 2, node 22), m
        154    1.683E+00                                 F               0         X-component position of node 52 (blade 2, node 23), m
        155   -4.923E+01                                 F               0         Y-component position of node 52 (blade 2, node 23), m
        156    5.935E+01                                 F               0         Z-component position of node 52 (blade 2, node 23), m
        157    7.732E-01                                 F               0         X-component position of node 53 (blade 2, node 24), m
        158   -5.085E+01                                 F               0         Y-component position of node 53 (blade 2, node 24), m
        159    5.596E+01                                 F               0         Z-component position of node 53 (blade 2, node 24), m
        160   -1.370E-01                                 F               0         X-component position of node 54 (blade 2, node 25), m
        161   -5.246E+01                                 F               0         Y-component position of node 54 (blade 2, node 25), m
        162    5.256E+01                                 F               0         Z-component position of node 54 (blade 2, node 25), m
        163   -1.047E+00                                 F               0         X-component position of node 55 (blade 2, node 26), m
        164   -5.407E+01                                 F               0         Y-component position of node 55 (blade 2, node 26), m
        165    4.916E+01                                 F               0         Z-component position of node 55 (blade 2, node 26), m
        166   -1.958E+00                                 F               0         X-component position of node 56 (blade 2, node 27), m
        167   -5.568E+01                                 F               0         Y-component position of node 56 (blade 2, node 27), m
        168    4.577E+01                                 F               0         Z-component position of node 56 (blade 2, node 27), m
        169   -2.729E+00                                 F               0         X-component position of node 57 (blade 2, node 28), m
        170   -5.704E+01                                 F               0         Y-component position of node 57 (blade 2, node 28), m
        171    4.289E+01                                 F               0         Z-component position of node 57 (blade 2, node 28), m
        172    2.581E+01                                 F               0         X-component position of node 58 (blade 3, node 1), m
        173   -1.072E+00                                 F               0         Y-component position of node 58 (blade 3, node 1), m
        174    1.498E+02                                 F               0         Z-component position of node 58 (blade 3, node 1), m
        175    2.582E+01                                 F               0         X-component position of node 59 (blade 3, node 2), m
        176    2.571E-01                                 F               0         Y-component position of node 59 (blade 3, node 2), m
        177    1.499E+02                                 F               0         Z-component position of node 59 (blade 3, node 2), m
        178    2.593E+01                                 F               0         X-component position of node 60 (blade 3, node 3), m
        179    1.833E+01                                 F               0         Y-component position of node 60 (blade 3, node 3), m
        180    1.516E+02                                 F               0         Z-component position of node 60 (blade 3, node 3), m
        181    2.595E+01                                 F               0         X-component position of node 61 (blade 3, node 4), m
        182    2.218E+01                                 F               0         Y-component position of node 61 (blade 3, node 4), m
        183    1.520E+02                                 F               0         Z-component position of node 61 (blade 3, node 4), m
        184    2.598E+01                                 F               0         X-component position of node 62 (blade 3, node 5), m
        185    2.603E+01                                 F               0         Y-component position of node 62 (blade 3, node 5), m
        186    1.524E+02                                 F               0         Z-component position of node 62 (blade 3, node 5), m
        187    2.600E+01                                 F               0         X-component position of node 63 (blade 3, node 6), m
        188    2.988E+01                                 F               0         Y-component position of node 63 (blade 3, node 6), m
        189    1.528E+02                                 F               0         Z-component position of node 63 (blade 3, node 6), m
        190    2.603E+01                                 F               0         X-component position of node 64 (blade 3, node 7), m
        191    3.373E+01                                 F               0         Y-component position of node 64 (blade 3, node 7), m
        192    1.531E+02                                 F               0         Z-component position of node 64 (blade 3, node 7), m
        193    2.605E+01                                 F               0         X-component position of node 65 (blade 3, node 8), m
        194    3.758E+01                                 F               0         Y-component position of node 65 (blade 3, node 8), m
        195    1.535E+02                                 F               0         Z-component position of node 65 (blade 3, node 8), m
        196    2.607E+01                                 F               0         X-component position of node 66 (blade 3, node 9), m
        197    4.143E+01                                 F               0         Y-component position of node 66 (blade 3, node 9), m
        198    1.539E+02                                 F               0         Z-component position of node 66 (blade 3, node 9), m
        199    2.610E+01                                 F               0         X-component position of node 67 (blade 3, node 10), m
        200    4.528E+01                                 F               0         Y-component position of node 67 (blade 3, node 10), m
        201    1.542E+02                                 F               0         Z-component position of node 67 (blade 3, node 10), m
        202    2.612E+01                                 F               0         X-component position of node 68 (blade 3, node 11), m
        203    4.913E+01                                 F               0         Y-component position of node 68 (blade 3, node 11), m
        204    1.546E+02                                 F               0         Z-component position of node 68 (blade 3, node 11), m
        205    2.614E+01                                 F               0         X-component position of node 69 (blade 3, node 12), m
        206    5.298E+01                                 F               0         Y-component position of node 69 (blade 3, node 12), m
        207    1.550E+02                                 F               0         Z-component position of node 69 (blade 3, node 12), m
        208    2.617E+01                                 F               0         X-component position of node 70 (blade 3, node 13), m
        209    5.683E+01                                 F               0         Y-component position of node 70 (blade 3, node 13), m
        210    1.553E+02                                 F               0         Z-component position of node 70 (blade 3, node 13), m
        211    2.619E+01                                 F               0         X-component position of node 71 (blade 3, node 14), m