
Linearized model: Predictions were generated on 19-Dec-2023 at 09:27:32 using OpenFAST, compiled as a 64-bit application using single precision at commit v3.5.1
 linked with  NWTC Subroutine Library; ElastoDyn; InflowWind; AeroDyn; ServoDyn; HydroDyn; MoorDyn (v2.0.0, 2023-09-18)

Description from the FAST input file: CCT-9 Campign 4 model. Input files to be run with OpenFAST 3.5.0. GitHub branch from Lu Wang (https://github.com/luwang00/openfast/tree/dev) compiled on March 7, 2023.

Simulation information:
   Simulation time:                  1006.2250 s
   Rotor Speed:                         1.0409 rad/s
   Azimuth:                             5.3251 rad
   Wind Speed:                         12.0000 m/s
   Number of continuous states:         0
   Number of discrete states:           0
   Number of constraint states:         0
   Number of inputs:                  303
   Number of outputs:                   1
   Jacobians included in this file?    No

Order of inputs:
     Column   Operating Point                     Rotating Frame? Derivative Order Description
   ---------- ---------------                     --------------- ---------------- -----------
          1   -1.080E+01                                 F               0         X-component position of node 1 (hub), m
          2    0.000E+00                                 F               0         Y-component position of node 1 (hub), m
          3    1.497E+02                                 F               0         Z-component position of node 1 (hub), m
          4    2.659E+01                                 F               0         X-component position of node 2 (blade 1, node 1), m
          5   -1.959E+00                                 F               0         Y-component position of node 2 (blade 1, node 1), m
          6    1.525E+02                                 F               0         Z-component position of node 2 (blade 1, node 1), m
          7    2.679E+01                                 F               0         X-component position of node 3 (blade 1, node 2), m
          8   -8.980E-01                                 F               0         Y-component position of node 3 (blade 1, node 2), m
          9    1.533E+02                                 F               0         Z-component position of node 3 (blade 1, node 2), m
         10    2.946E+01                                 F               0         X-component position of node 4 (blade 1, node 3), m
         11    1.353E+01                                 F               0         Y-component position of node 4 (blade 1, node 3), m
         12    1.640E+02                                 F               0         Z-component position of node 4 (blade 1, node 3), m
         13    3.003E+01                                 F               0         X-component position of node 5 (blade 1, node 4), m
         14    1.661E+01                                 F               0         Y-component position of node 5 (blade 1, node 4), m
         15    1.663E+02                                 F               0         Z-component position of node 5 (blade 1, node 4), m
         16    3.059E+01                                 F               0         X-component position of node 6 (blade 1, node 5), m
         17    1.968E+01                                 F               0         Y-component position of node 6 (blade 1, node 5), m
         18    1.685E+02                                 F               0         Z-component position of node 6 (blade 1, node 5), m
         19    3.116E+01                                 F               0         X-component position of node 7 (blade 1, node 6), m
         20    2.276E+01                                 F               0         Y-component position of node 7 (blade 1, node 6), m
         21    1.708E+02                                 F               0         Z-component position of node 7 (blade 1, node 6), m
         22    3.173E+01                                 F               0         X-component position of node 8 (blade 1, node 7), m
         23    2.583E+01                                 F               0         Y-component position of node 8 (blade 1, node 7), m
         24    1.731E+02                                 F               0         Z-component position of node 8 (blade 1, node 7), m
         25    3.230E+01                                 F               0         X-component position of node 9 (blade 1, node 8), m
         26    2.891E+01                                 F               0         Y-component position of node 9 (blade 1, node 8), m
         27    1.754E+02                                 F               0         Z-component position of node 9 (blade 1, node 8), m
         28    3.287E+01                                 F               0         X-component position of node 10 (blade 1, node 9), m
         29    3.198E+01                                 F               0         Y-component position of node 10 (blade 1, node 9), m
         30    1.776E+02                                 F               0         Z-component position of node 10 (blade 1, node 9), m
         31    3.344E+01                                 F               0         X-component position of node 11 (blade 1, node 10), m
         32    3.506E+01                                 F               0         Y-component position of node 11 (blade 1, node 10), m
         33    1.799E+02                                 F               0         Z-component position of node 11 (blade 1, node 10), m
         34    3.401E+01                                 F               0         X-component position of node 12 (blade 1, node 11), m
         35    3.813E+01                                 F               0         Y-component position of node 12 (blade 1, node 11), m
         36    1.822E+02                                 F               0         Z-component position of node 12 (blade 1, node 11), m
         37    3.457E+01                                 F               0         X-component position of node 13 (blade 1, node 12), m
         38    4.121E+01                                 F               0         Y-component position of node 13 (blade 1, node 12), m
         39    1.845E+02                                 F               0         Z-component position of node 13 (blade 1, node 12), m
         40    3.514E+01                                 F               0         X-component position of node 14 (blade 1, node 13), m
         41    4.428E+01                                 F               0         Y-component position of node 14 (blade 1, node 13), m
         42    1.868E+02                                 F               0         Z-component position of node 14 (blade 1, node 13), m
         43    3.571E+01                                 F               0         X-component position of node 15 (blade 1, node 14), m
         44    4.736E+01                                 F               0         Y-component position of node 15 (blade 1, node 14), m
         45    1.890E+02                                 F               0         Z-component position of node 15 (blade 1, node 14), m
         46    3.628E+01                                 F               0         X-component position of node 16 (blade 1, node 15), m
         47    5.043E+01                                 F               0         Y-component position of node 16 (blade 1, node 15), m
         48    1.913E+02                                 F               0         Z-component position of node 16 (blade 1, node 15), m
         49    3.685E+01                                 F               0         X-component position of node 17 (blade 1, node 16), m
         50    5.351E+01                                 F               0         Y-component position of node 17 (blade 1, node 16), m
         51    1.936E+02                                 F               0         Z-component position of node 17 (blade 1, node 16), m
         52    3.742E+01                                 F               0         X-component position of node 18 (blade 1, node 17), m
         53    5.658E+01                                 F               0         Y-component position of node 18 (blade 1, node 17), m
         54    1.959E+02                                 F               0         Z-component position of node 18 (blade 1, node 17), m
         55    3.799E+01                                 F               0         X-component position of node 19 (blade 1, node 18), m
         56    5.966E+01                                 F               0         Y-component position of node 19 (blade 1, node 18), m
         57    1.981E+02                                 F               0         Z-component position of node 19 (blade 1, node 18), m
         58    3.855E+01                                 F               0         X-component position of node 20 (blade 1, node 19), m
         59    6.273E+01                                 F               0         Y-component position of node 20 (blade 1, node 19), m
         60    2.004E+02                                 F               0         Z-component position of node 20 (blade 1, node 19), m
         61    3.912E+01                                 F               0         X-component position of node 21 (blade 1, node 20), m
         62    6.581E+01                                 F               0         Y-component position of node 21 (blade 1, node 20), m
         63    2.027E+02                                 F               0         Z-component position of node 21 (blade 1, node 20), m
         64    3.969E+01                                 F               0         X-component position of node 22 (blade 1, node 21), m
         65    6.888E+01                                 F               0         Y-component position of node 22 (blade 1, node 21), m
         66    2.050E+02                                 F               0         Z-component position of node 22 (blade 1, node 21), m
         67    4.026E+01                                 F               0         X-component position of node 23 (blade 1, node 22), m
         68    7.196E+01                                 F               0         Y-component position of node 23 (blade 1, node 22), m
         69    2.072E+02                                 F               0         Z-component position of node 23 (blade 1, node 22), m
         70    4.083E+01                                 F               0         X-component position of node 24 (blade 1, node 23), m
         71    7.503E+01                                 F               0         Y-component position of node 24 (blade 1, node 23), m
         72    2.095E+02                                 F               0         Z-component position of node 24 (blade 1, node 23), m
         73    4.140E+01                                 F               0         X-component position of node 25 (blade 1, node 24), m
         74    7.811E+01                                 F               0         Y-component position of node 25 (blade 1, node 24), m
         75    2.118E+02                                 F               0         Z-component position of node 25 (blade 1, node 24), m
         76    4.197E+01                                 F               0         X-component position of node 26 (blade 1, node 25), m
         77    8.118E+01                                 F               0         Y-component position of node 26 (blade 1, node 25), m
         78    2.141E+02                                 F               0         Z-component position of node 26 (blade 1, node 25), m
         79    4.253E+01                                 F               0         X-component position of node 27 (blade 1, node 26), m
         80    8.426E+01                                 F               0         Y-component position of node 27 (blade 1, node 26), m
         81    2.163E+02                                 F               0         Z-component position of node 27 (blade 1, node 26), m
         82    4.310E+01                                 F               0         X-component position of node 28 (blade 1, node 27), m
         83    8.733E+01                                 F               0         Y-component position of node 28 (blade 1, node 27), m
         84    2.186E+02                                 F               0         Z-component position of node 28 (blade 1, node 27), m
         85    4.358E+01                                 F               0         X-component position of node 29 (blade 1, node 28), m
         86    8.994E+01                                 F               0         Y-component position of node 29 (blade 1, node 28), m
         87    2.205E+02                                 F               0         Z-component position of node 29 (blade 1, node 28), m
         88    2.645E+01                                 F               0         X-component position of node 30 (blade 2, node 1), m
         89   -1.147E+01                                 F               0         Y-component position of node 30 (blade 2, node 1), m
         90    1.513E+02                                 F               0         Z-component position of node 30 (blade 2, node 1), m
         91    2.661E+01                                 F               0         X-component position of node 31 (blade 2, node 2), m
         92   -1.271E+01                                 F               0         Y-component position of node 31 (blade 2, node 2), m
         93    1.518E+02                                 F               0         Z-component position of node 31 (blade 2, node 2), m
         94    2.880E+01                                 F               0         X-component position of node 32 (blade 2, node 3), m
         95   -2.945E+01                                 F               0         Y-component position of node 32 (blade 2, node 3), m
         96    1.584E+02                                 F               0         Z-component position of node 32 (blade 2, node 3), m
         97    2.927E+01                                 F               0         X-component position of node 33 (blade 2, node 4), m
         98   -3.302E+01                                 F               0         Y-component position of node 33 (blade 2, node 4), m
         99    1.599E+02                                 F               0         Z-component position of node 33 (blade 2, node 4), m
        100    2.974E+01                                 F               0         X-component position of node 34 (blade 2, node 5), m
        101   -3.659E+01                                 F               0         Y-component position of node 34 (blade 2, node 5), m
        102    1.613E+02                                 F               0         Z-component position of node 34 (blade 2, node 5), m
        103    3.020E+01                                 F               0         X-component position of node 35 (blade 2, node 6), m
        104   -4.016E+01                                 F               0         Y-component position of node 35 (blade 2, node 6), m
        105    1.627E+02                                 F               0         Z-component position of node 35 (blade 2, node 6), m
        106    3.067E+01                                 F               0         X-component position of node 36 (blade 2, node 7), m
        107   -4.372E+01                                 F               0         Y-component position of node 36 (blade 2, node 7), m
        108    1.641E+02                                 F               0         Z-component position of node 36 (blade 2, node 7), m
        109    3.114E+01                                 F               0         X-component position of node 37 (blade 2, node 8), m
        110   -4.729E+01                                 F               0         Y-component position of node 37 (blade 2, node 8), m
        111    1.655E+02                                 F               0         Z-component position of node 37 (blade 2, node 8), m
        112    3.161E+01                                 F               0         X-component position of node 38 (blade 2, node 9), m
        113   -5.086E+01                                 F               0         Y-component position of node 38 (blade 2, node 9), m
        114    1.669E+02                                 F               0         Z-component position of node 38 (blade 2, node 9), m
        115    3.207E+01                                 F               0         X-component position of node 39 (blade 2, node 10), m
        116   -5.443E+01                                 F               0         Y-component position of node 39 (blade 2, node 10), m
        117    1.684E+02                                 F               0         Z-component position of node 39 (blade 2, node 10), m
        118    3.254E+01                                 F               0         X-component position of node 40 (blade 2, node 11), m
        119   -5.800E+01                                 F               0         Y-component position of node 40 (blade 2, node 11), m
        120    1.698E+02                                 F               0         Z-component position of node 40 (blade 2, node 11), m
        121    3.301E+01                                 F               0         X-component position of node 41 (blade 2, node 12), m
        122   -6.157E+01                                 F               0         Y-component position of node 41 (blade 2, node 12), m
        123    1.712E+02                                 F               0         Z-component position of node 41 (blade 2, node 12), m
        124    3.348E+01                                 F               0         X-component position of node 42 (blade 2, node 13), m
        125   -6.513E+01                                 F               0         Y-component position of node 42 (blade 2, node 13), m
        126    1.726E+02                                 F               0         Z-component position of node 42 (blade 2, node 13), m
        127    3.394E+01                                 F               0         X-component position of node 43 (blade 2, node 14), m
        128   -6.870E+01                                 F               0         Y-component position of node 43 (blade 2, node 14), m
        129    1.740E+02                                 F               0         Z-component position of node 43 (blade 2, node 14), m
        130    3.441E+01                                 F               0         X-component position of node 44 (blade 2, node 15), m
        131   -7.227E+01                                 F               0         Y-component position of node 44 (blade 2, node 15), m
        132    1.754E+02                                 F               0         Z-component position of node 44 (blade 2, node 15), m
        133    3.488E+01                                 F               0         X-component position of node 45 (blade 2, node 16), m
        134   -7.584E+01                                 F               0         Y-component position of node 45 (blade 2, node 16), m
        135    1.769E+02                                 F               0         Z-component position of node 45 (blade 2, node 16), m
        136    3.535E+01                                 F               0         X-component position of node 46 (blade 2, node 17), m
        137   -7.941E+01                                 F               0         Y-component position of node 46 (blade 2, node 17), m
        138    1.783E+02                                 F               0         Z-component position of node 46 (blade 2, node 17), m
        139    3.581E+01                                 F               0         X-component position of node 47 (blade 2, node 18), m
        140   -8.297E+01                                 F               0         Y-component position of node 47 (blade 2, node 18), m
        141    1.797E+02                                 F               0         Z-component position of node 47 (blade 2, node 18), m
        142    3.628E+01                                 F               0         X-component position of node 48 (blade 2, node 19), m
        143   -8.654E+01                                 F               0         Y-component position of node 48 (blade 2, node 19), m
        144    1.811E+02                                 F               0         Z-component position of node 48 (blade 2, node 19), m
        145    3.675E+01                                 F               0         X-component position of node 49 (blade 2, node 20), m
        146   -9.011E+01                                 F               0         Y-component position of node 49 (blade 2, node 20), m
        147    1.825E+02                                 F               0         Z-component position of node 49 (blade 2, node 20), m
        148    3.722E+01                                 F               0         X-component position of node 50 (blade 2, node 21), m
        149   -9.368E+01                                 F               0         Y-component position of node 50 (blade 2, node 21), m
        150    1.839E+02                                 F               0         Z-component position of node 50 (blade 2, node 21), m
        151    3.768E+01                                 F               0         X-component position of node 51 (blade 2, node 22), m
        152   -9.725E+01                                 F               0         Y-component position of node 51 (blade 2, node 22), m
        153    1.854E+02                                 F               0         Z-component position of node 51 (blade 2, node 22), m
        154    3.815E+01                                 F               0         X-component position of node 52 (blade 2, node 23), m
        155   -1.008E+02                                 F               0         Y-component position of node 52 (blade 2, node 23), m
        156    1.868E+02                                 F               0         Z-component position of node 52 (blade 2, node 23), m
        157    3.862E+01                                 F               0         X-component position of node 53 (blade 2, node 24), m
        158   -1.044E+02                                 F               0         Y-component position of node 53 (blade 2, node 24), m
        159    1.882E+02                                 F               0         Z-component position of node 53 (blade 2, node 24), m
        160    3.909E+01                                 F               0         X-component position of node 54 (blade 2, node 25), m
        161   -1.079E+02                                 F               0         Y-component position of node 54 (blade 2, node 25), m
        162    1.896E+02                                 F               0         Z-component position of node 54 (blade 2, node 25), m
        163    3.955E+01                                 F               0         X-component position of node 55 (blade 2, node 26), m
        164   -1.115E+02                                 F               0         Y-component position of node 55 (blade 2, node 26), m
        165    1.910E+02                                 F               0         Z-component position of node 55 (blade 2, node 26), m
        166    4.002E+01                                 F               0         X-component position of node 56 (blade 2, node 27), m
        167   -1.151E+02                                 F               0         Y-component position of node 56 (blade 2, node 27), m
        168    1.925E+02                                 F               0         Z-component position of node 56 (blade 2, node 27), m
        169    4.042E+01                                 F               0         X-component position of node 57 (blade 2, node 28), m
        170   -1.181E+02                                 F               0         Y-component position of node 57 (blade 2, node 28), m
        171    1.937E+02                                 F               0         Z-component position of node 57 (blade 2, node 28), m
        172    2.429E+01                                 F               0         X-component position of node 58 (blade 3, node 1), m
        173   -5.658E+00                                 F               0         Y-component position of node 58 (blade 3, node 1), m
        174    1.440E+02                                 F               0         Z-component position of node 58 (blade 3, node 1), m
        175    2.394E+01                                 F               0         X-component position of node 59 (blade 3, node 2), m
        176   -5.487E+00                                 F               0         Y-component position of node 59 (blade 3, node 2), m
        177    1.427E+02                                 F               0         Z-component position of node 59 (blade 3, node 2), m
        178    1.907E+01                                 F               0         X-component position of node 60 (blade 3, node 3), m
        179   -3.173E+00                                 F               0         Y-component position of node 60 (blade 3, node 3), m
        180    1.254E+02                                 F               0         Z-component position of node 60 (blade 3, node 3), m
        181    1.804E+01                                 F               0         X-component position of node 61 (blade 3, node 4), m
        182   -2.680E+00                                 F               0         Y-component position of node 61 (blade 3, node 4), m
        183    1.217E+02                                 F               0         Z-component position of node 61 (blade 3, node 4), m
        184    1.700E+01                                 F               0         X-component position of node 62 (blade 3, node 5), m
        185   -2.187E+00                                 F               0         Y-component position of node 62 (blade 3, node 5), m
        186    1.180E+02                                 F               0         Z-component position of node 62 (blade 3, node 5), m
        187    1.597E+01                                 F               0         X-component position of node 63 (blade 3, node 6), m
        188   -1.694E+00                                 F               0         Y-component position of node 63 (blade 3, node 6), m
        189    1.143E+02                                 F               0         Z-component position of node 63 (blade 3, node 6), m
        190    1.493E+01                                 F               0         X-component position of node 64 (blade 3, node 7), m
        191   -1.201E+00                                 F               0         Y-component position of node 64 (blade 3, node 7), m
        192    1.106E+02                                 F               0         Z-component position of node 64 (blade 3, node 7), m
        193    1.389E+01                                 F               0         X-component position of node 65 (blade 3, node 8), m
        194   -7.073E-01                                 F               0         Y-component position of node 65 (blade 3, node 8), m
        195    1.069E+02                                 F               0         Z-component position of node 65 (blade 3, node 8), m
        196    1.286E+01                                 F               0         X-component position of node 66 (blade 3, node 9), m
        197   -2.142E-01                                 F               0         Y-component position of node 66 (blade 3, node 9), m
        198    1.032E+02                                 F               0         Z-component position of node 66 (blade 3, node 9), m
        199    1.182E+01                                 F               0         X-component position of node 67 (blade 3, node 10), m
        200    2.788E-01                                 F               0         Y-component position of node 67 (blade 3, node 10), m
        201    9.951E+01                                 F               0         Z-component position of node 67 (blade 3, node 10), m
        202    1.079E+01                                 F               0         X-component position of node 68 (blade 3, node 11), m
        203    7.719E-01                                 F               0         Y-component position of node 68 (blade 3, node 11), m
        204    9.581E+01                                 F               0         Z-component position of node 68 (blade 3, node 11), m
        205    9.749E+00                                 F               0         X-component position of node 69 (blade 3, node 12), m
        206    1.265E+00                                 F               0         Y-component position of node 69 (blade 3, node 12), m
        207    9.212E+01                                 F               0         Z-component position of node 69 (blade 3, node 12), m
        208    8.714E+00                                 F               0         X-component position of node 70 (blade 3, node 13), m
        209    1.758E+00                                 F               0         Y-component position of node 70 (blade 3, node 13), m
        210    8.842E+01                                 F               0         Z-component position of node 70 (blade 3, node 13), m
        211    7.678E+00                                 F               0         X-component position of node 71 (blade 3, node 14), m