
Linearized model: Predictions were generated on 19-Dec-2023 at 09:27:32 using OpenFAST, compiled as a 64-bit application using single precision at commit v3.5.1
 linked with  NWTC Subroutine Library; ElastoDyn; InflowWind; AeroDyn; ServoDyn; HydroDyn; MoorDyn (v2.0.0, 2023-09-18)

Description from the FAST input file: CCT-9 Campign 4 model. Input files to be run with OpenFAST 3.5.0. GitHub branch from Lu Wang (https://github.com/luwang00/openfast/tree/dev) compiled on March 7, 2023.

Simulation information:
   Simulation time:                  1005.7250 s
   Rotor Speed:                         1.0410 rad/s
   Azimuth:                             4.8046 rad
   Wind Speed:                         12.0000 m/s
   Number of continuous states:         0
   Number of discrete states:           0
   Number of constraint states:         0
   Number of inputs:                 1746
   Number of outputs:                   4
   Jacobians included in this file?    No

Order of inputs:
     Column   Operating Point                     Rotating Frame? Derivative Order Description
   ---------- ---------------                     --------------- ---------------- -----------
          1    1.511E+01                                 F               0         Tower X translation displacement, node 1, m
          2   -9.114E-01                                 F               0         Tower Y translation displacement, node 1, m
          3   -4.192E-01                                 F               0         Tower Z translation displacement, node 1, m
          4    1.702E+01                                 F               0         Tower X translation displacement, node 2, m
          5   -1.389E+00                                 F               0         Tower Y translation displacement, node 2, m
          6   -5.768E-01                                 F               0         Tower Z translation displacement, node 2, m
          7    1.896E+01                                 F               0         Tower X translation displacement, node 3, m
          8   -1.870E+00                                 F               0         Tower Y translation displacement, node 3, m
          9   -7.399E-01                                 F               0         Tower Z translation displacement, node 3, m
         10    2.093E+01                                 F               0         Tower X translation displacement, node 4, m
         11   -2.355E+00                                 F               0         Tower Y translation displacement, node 4, m
         12   -9.073E-01                                 F               0         Tower Z translation displacement, node 4, m
         13    2.292E+01                                 F               0         Tower X translation displacement, node 5, m
         14   -2.843E+00                                 F               0         Tower Y translation displacement, node 5, m
         15   -1.078E+00                                 F               0         Tower Z translation displacement, node 5, m
         16    2.493E+01                                 F               0         Tower X translation displacement, node 6, m
         17   -3.333E+00                                 F               0         Tower Y translation displacement, node 6, m
         18   -1.253E+00                                 F               0         Tower Z translation displacement, node 6, m
         19    2.695E+01                                 F               0         Tower X translation displacement, node 7, m
         20   -3.824E+00                                 F               0         Tower Y translation displacement, node 7, m
         21   -1.429E+00                                 F               0         Tower Z translation displacement, node 7, m
         22    2.899E+01                                 F               0         Tower X translation displacement, node 8, m
         23   -4.317E+00                                 F               0         Tower Y translation displacement, node 8, m
         24   -1.608E+00                                 F               0         Tower Z translation displacement, node 8, m
         25    3.103E+01                                 F               0         Tower X translation displacement, node 9, m
         26   -4.812E+00                                 F               0         Tower Y translation displacement, node 9, m
         27   -1.787E+00                                 F               0         Tower Z translation displacement, node 9, m
         28    3.307E+01                                 F               0         Tower X translation displacement, node 10, m
         29   -5.307E+00                                 F               0         Tower Y translation displacement, node 10, m
         30   -1.968E+00                                 F               0         Tower Z translation displacement, node 10, m
         31    3.512E+01                                 F               0         Tower X translation displacement, node 11, m
         32   -5.803E+00                                 F               0         Tower Y translation displacement, node 11, m
         33   -2.150E+00                                 F               0         Tower Z translation displacement, node 11, m
         34    9.881E-01,  1.536E-02, -1.528E-01         F               0         Tower X orientation angle, node 1, rad
         35   -9.278E-03,  9.991E-01,  4.042E-02         F               0         Tower Y orientation angle, node 1, rad
         36    1.533E-01, -3.852E-02,  9.874E-01         F               0         Tower Z orientation angle, node 1, rad
         37    9.877E-01,  1.546E-02, -1.554E-01         F               0         Tower X orientation angle, node 2, rad
         38   -9.225E-03,  9.991E-01,  4.076E-02         F               0         Tower Y orientation angle, node 2, rad
         39    1.559E-01, -3.883E-02,  9.870E-01         F               0         Tower Z orientation angle, node 2, rad
         40    9.874E-01,  1.555E-02, -1.577E-01         F               0         Tower X orientation angle, node 3, rad
         41   -9.176E-03,  9.991E-01,  4.107E-02         F               0         Tower Y orientation angle, node 3, rad
         42    1.582E-01, -3.910E-02,  9.866E-01         F               0         Tower Z orientation angle, node 3, rad
         43    9.870E-01,  1.563E-02, -1.597E-01         F               0         Tower X orientation angle, node 4, rad
         44   -9.132E-03,  9.991E-01,  4.134E-02         F               0         Tower Y orientation angle, node 4, rad
         45    1.602E-01, -3.934E-02,  9.863E-01         F               0         Tower Z orientation angle, node 4, rad
         46    9.868E-01,  1.569E-02, -1.613E-01         F               0         Tower X orientation angle, node 5, rad
         47   -9.095E-03,  9.991E-01,  4.157E-02         F               0         Tower Y orientation angle, node 5, rad
         48    1.618E-01, -3.955E-02,  9.860E-01         F               0         Tower Z orientation angle, node 5, rad
         49    9.866E-01,  1.575E-02, -1.626E-01         F               0         Tower X orientation angle, node 6, rad
         50   -9.063E-03,  9.991E-01,  4.176E-02         F               0         Tower Y orientation angle, node 6, rad
         51    1.631E-01, -3.972E-02,  9.858E-01         F               0         Tower Z orientation angle, node 6, rad
         52    9.864E-01,  1.579E-02, -1.636E-01         F               0         Tower X orientation angle, node 7, rad
         53   -9.038E-03,  9.991E-01,  4.191E-02         F               0         Tower Y orientation angle, node 7, rad
         54    1.642E-01, -3.986E-02,  9.856E-01         F               0         Tower Z orientation angle, node 7, rad
         55    9.863E-01,  1.582E-02, -1.644E-01         F               0         Tower X orientation angle, node 8, rad
         56   -9.018E-03,  9.991E-01,  4.203E-02         F               0         Tower Y orientation angle, node 8, rad
         57    1.649E-01, -3.997E-02,  9.855E-01         F               0         Tower Z orientation angle, node 8, rad
         58    9.862E-01,  1.584E-02, -1.649E-01         F               0         Tower X orientation angle, node 9, rad
         59   -9.003E-03,  9.991E-01,  4.212E-02         F               0         Tower Y orientation angle, node 9, rad
         60    1.655E-01, -4.005E-02,  9.854E-01         F               0         Tower Z orientation angle, node 9, rad
         61    9.861E-01,  1.585E-02, -1.653E-01         F               0         Tower X orientation angle, node 10, rad
         62   -8.994E-03,  9.991E-01,  4.218E-02         F               0         Tower Y orientation angle, node 10, rad
         63    1.658E-01, -4.011E-02,  9.853E-01         F               0         Tower Z orientation angle, node 10, rad
         64    9.861E-01,  1.586E-02, -1.655E-01         F               0         Tower X orientation angle, node 11, rad
         65   -8.988E-03,  9.991E-01,  4.221E-02         F               0         Tower Y orientation angle, node 11, rad
         66    1.660E-01, -4.013E-02,  9.853E-01         F               0         Tower Z orientation angle, node 11, rad
         67   -2.932E-04                                 F               0         Tower X translation velocity, node 1, m/s
         68   -1.837E-02                                 F               0         Tower Y translation velocity, node 1, m/s
         69    3.912E-03                                 F               0         Tower Z translation velocity, node 1, m/s
         70   -1.608E-04                                 F               0         Tower X translation velocity, node 2, m/s
         71   -3.060E-02                                 F               0         Tower Y translation velocity, node 2, m/s
         72    3.413E-03                                 F               0         Tower Z translation velocity, node 2, m/s
         73   -3.238E-05                                 F               0         Tower X translation velocity, node 3, m/s
         74   -4.299E-02                                 F               0         Tower Y translation velocity, node 3, m/s
         75    2.903E-03                                 F               0         Tower Z translation velocity, node 3, m/s
         76    9.495E-05                                 F               0         Tower X translation velocity, node 4, m/s
         77   -5.551E-02                                 F               0         Tower Y translation velocity, node 4, m/s
         78    2.384E-03                                 F               0         Tower Z translation velocity, node 4, m/s
         79    2.233E-04                                 F               0         Tower X translation velocity, node 5, m/s
         80   -6.814E-02                                 F               0         Tower Y translation velocity, node 5, m/s
         81    1.858E-03                                 F               0         Tower Z translation velocity, node 5, m/s
         82    3.543E-04                                 F               0         Tower X translation velocity, node 6, m/s
         83   -8.086E-02                                 F               0         Tower Y translation velocity, node 6, m/s
         84    1.325E-03                                 F               0         Tower Z translation velocity, node 6, m/s
         85    4.890E-04                                 F               0         Tower X translation velocity, node 7, m/s
         86   -9.364E-02                                 F               0         Tower Y translation velocity, node 7, m/s
         87    7.864E-04                                 F               0         Tower Z translation velocity, node 7, m/s
         88    6.281E-04                                 F               0         Tower X translation velocity, node 8, m/s
         89   -1.065E-01                                 F               0         Tower Y translation velocity, node 8, m/s
         90    2.432E-04                                 F               0         Tower Z translation velocity, node 8, m/s
         91    7.717E-04                                 F               0         Tower X translation velocity, node 9, m/s
         92   -1.194E-01                                 F               0         Tower Y translation velocity, node 9, m/s
         93   -3.039E-04                                 F               0         Tower Z translation velocity, node 9, m/s
         94    9.193E-04                                 F               0         Tower X translation velocity, node 10, m/s
         95   -1.323E-01                                 F               0         Tower Y translation velocity, node 10, m/s
         96   -8.538E-04                                 F               0         Tower Z translation velocity, node 10, m/s
         97    1.070E-03                                 F               0         Tower X translation velocity, node 11, m/s
         98   -1.452E-01                                 F               0         Tower Y translation velocity, node 11, m/s
         99   -1.405E-03                                 F               0         Tower Z translation velocity, node 11, m/s
        100    3.658E+01                                 F               0         Hub X translation displacement, node 1, m
        101   -6.289E+00                                 F               0         Hub Y translation displacement, node 1, m
        102   -4.778E-01                                 F               0         Hub Z translation displacement, node 1, m
        103    9.633E-01,  1.997E-02, -2.675E-01         F               0         Hub X orientation angle, node 1, rad
        104   -2.678E-01,  1.301E-01, -9.546E-01         F               0         Hub Y orientation angle, node 1, rad
        105    1.573E-02,  9.913E-01,  1.306E-01         F               0         Hub Z orientation angle, node 1, rad
        106    1.004E+00                                 F               0         Hub X rotation velocity, node 1, rad/s
        107    2.081E-02                                 F               0         Hub Y rotation velocity, node 1, rad/s
        108   -2.788E-01                                 F               0         Hub Z rotation velocity, node 1, rad/s
        109    9.709E-01,  1.610E-02, -2.391E-01         F               0         Blade root 1 X orientation angle, node 1, rad
        110   -2.391E-01,  1.306E-01, -9.622E-01         F               0         Blade root 1 Y orientation angle, node 1, rad
        111    1.573E-02,  9.913E-01,  1.306E-01         F               0         Blade root 1 Z orientation angle, node 1, rad
        112    9.585E-01, -3.578E-03, -2.849E-01         F               0         Blade root 2 X orientation angle, node 1, rad
        113    1.761E-01,  7.937E-01,  5.823E-01         F               0         Blade root 2 Y orientation angle, node 1, rad
        114    2.241E-01, -6.083E-01,  7.614E-01         F               0         Blade root 2 Z orientation angle, node 1, rad
        115    9.593E-01,  4.736E-02, -2.782E-01         F               0         Blade root 3 X orientation angle, node 1, rad
        116    1.488E-01, -9.225E-01,  3.561E-01         F               0         Blade root 3 Y orientation angle, node 1, rad
        117   -2.398E-01, -3.830E-01, -8.921E-01         F               0         Blade root 3 Z orientation angle, node 1, rad
        118    3.609E+01                                 F               0         Blade 1 X translation displacement, node 1, m
        119   -7.975E-01                                 F               0         Blade 1 Y translation displacement, node 1, m
        120   -5.264E+00                                 F               0         Blade 1 Z translation displacement, node 1, m
        121    3.597E+01                                 F               0         Blade 1 X translation displacement, node 2, m
        122    5.258E-01                                 F               0         Blade 1 Y translation displacement, node 2, m
        123   -6.417E+00                                 F               0         Blade 1 Z translation displacement, node 2, m
        124    3.436E+01                                 F               0         Blade 1 X translation displacement, node 3, m
        125    1.852E+01                                 F               0         Blade 1 Y translation displacement, node 3, m
        126   -2.210E+01                                 F               0         Blade 1 Z translation displacement, node 3, m
        127    3.401E+01                                 F               0         Blade 1 X translation displacement, node 4, m
        128    2.235E+01                                 F               0         Blade 1 Y translation displacement, node 4, m
        129   -2.544E+01                                 F               0         Blade 1 Z translation displacement, node 4, m
        130    3.367E+01                                 F               0         Blade 1 X translation displacement, node 5, m
        131    2.619E+01                                 F               0         Blade 1 Y translation displacement, node 5, m
        132   -2.878E+01                                 F               0         Blade 1 Z translation displacement, node 5, m
        133    3.332E+01                                 F               0         Blade 1 X translation displacement, node 6, m
        134    3.002E+01                                 F               0         Blade 1 Y translation displacement, node 6, m
        135   -3.212E+01                                 F               0         Blade 1 Z translation displacement, node 6, m
        136    3.298E+01                                 F               0         Blade 1 X translation displacement, node 7, m
        137    3.386E+01                                 F               0         Blade 1 Y translation displacement, node 7, m
        138   -3.546E+01                                 F               0         Blade 1 Z translation displacement, node 7, m
        139    3.264E+01                                 F               0         Blade 1 X translation displacement, node 8, m
        140    3.769E+01                                 F               0         Blade 1 Y translation displacement, node 8, m
        141   -3.880E+01                                 F               0         Blade 1 Z translation displacement, node 8, m
        142    3.229E+01                                 F               0         Blade 1 X translation displacement, node 9, m
        143    4.152E+01                                 F               0         Blade 1 Y translation displacement, node 9, m
        144   -4.215E+01                                 F               0         Blade 1 Z translation displacement, node 9, m
        145    3.195E+01                                 F               0         Blade 1 X translation displacement, node 10, m
        146    4.536E+01                                 F               0         Blade 1 Y translation displacement, node 10, m
        147   -4.549E+01                                 F               0         Blade 1 Z translation displacement, node 10, m
        148    3.161E+01                                 F               0         Blade 1 X translation displacement, node 11, m
        149    4.919E+01                                 F               0         Blade 1 Y translation displacement, node 11, m
        150   -4.883E+01                                 F               0         Blade 1 Z translation displacement, node 11, m
        151    3.126E+01                                 F               0         Blade 1 X translation displacement, node 12, m
        152    5.303E+01                                 F               0         Blade 1 Y translation displacement, node 12, m
        153   -5.217E+01                                 F               0         Blade 1 Z translation displacement, node 12, m
        154    3.092E+01                                 F               0         Blade 1 X translation displacement, node 13, m
        155    5.686E+01                                 F               0         Blade 1 Y translation displacement, node 13, m
        156   -5.551E+01                                 F               0         Blade 1 Z translation displacement, node 13, m
        157    3.058E+01                                 F               0         Blade 1 X translation displacement, node 14, m
        158    6.069E+01                                 F               0         Blade 1 Y translation displacement, node 14, m
        159   -5.885E+01                                 F               0         Blade 1 Z translation displacement, node 14, m
        160    3.023E+01                                 F               0         Blade 1 X translation displacement, node 15, m
        161    6.453E+01                                 F               0         Blade 1 Y translation displacement, node 15, m
        162   -6.219E+01                                 F               0         Blade 1 Z translation displacement, node 15, m
        163    2.989E+01                                 F               0         Blade 1 X translation displacement, node 16, m
        164    6.836E+01                                 F               0         Blade 1 Y translation displacement, node 16, m
        165   -6.553E+01                                 F               0         Blade 1 Z translation displacement, node 16, m
        166    2.955E+01                                 F               0         Blade 1 X translation displacement, node 17, m
        167    7.220E+01                                 F               0         Blade 1 Y translation displacement, node 17, m
        168   -6.888E+01                                 F               0         Blade 1 Z translation displacement, node 17, m
        169    2.920E+01                                 F               0         Blade 1 X translation displacement, node 18, m
        170    7.603E+01                                 F               0         Blade 1 Y translation displacement, node 18, m
        171   -7.222E+01                                 F               0         Blade 1 Z translation displacement, node 18, m
        172    2.886E+01                                 F               0         Blade 1 X translation displacement, node 19, m
        173    7.987E+01                                 F               0         Blade 1 Y translation displacement, node 19, m
        174   -7.556E+01                                 F               0         Blade 1 Z translation displacement, node 19, m
        175    2.852E+01                                 F               0         Blade 1 X translation displacement, node 20, m
        176    8.370E+01                                 F               0         Blade 1 Y translation displacement, node 20, m
        177   -7.890E+01                                 F               0         Blade 1 Z translation displacement, node 20, m
        178    2.817E+01                                 F               0         Blade 1 X translation displacement, node 21, m
        179    8.753E+01                                 F               0         Blade 1 Y translation displacement, node 21, m
        180   -8.224E+01                                 F               0         Blade 1 Z translation displacement, node 21, m
        181    2.783E+01                                 F               0         Blade 1 X translation displacement, node 22, m
        182    9.137E+01                                 F               0         Blade 1 Y translation displacement, node 22, m
        183   -8.558E+01                                 F               0         Blade 1 Z translation displacement, node 22, m
        184    2.749E+01                                 F               0         Blade 1 X translation displacement, node 23, m
        185    9.520E+01                                 F               0         Blade 1 Y translation displacement, node 23, m
        186   -8.892E+01                                 F               0         Blade 1 Z translation displacement, node 23, m
        187    2.714E+01                                 F               0         Blade 1 X translation displacement, node 24, m
        188    9.904E+01                                 F               0         Blade 1 Y translation displacement, node 24, m
        189   -9.226E+01                                 F               0         Blade 1 Z translation displacement, node 24, m
        190    2.680E+01                                 F               0         Blade 1 X translation displacement, node 25, m
        191    1.029E+02                                 F               0         Blade 1 Y translation displacement, node 25, m
        192   -9.560E+01                                 F               0         Blade 1 Z translation displacement, node 25, m
        193    2.646E+01                                 F               0         Blade 1 X translation displacement, node 26, m
        194    1.067E+02                                 F               0         Blade 1 Y translation displacement, node 26, m
        195   -9.895E+01                                 F               0         Blade 1 Z translation displacement, node 26, m
        196    2.611E+01                                 F               0         Blade 1 X translation displacement, node 27, m
        197    1.105E+02                                 F               0         Blade 1 Y translation displacement, node 27, m
        198   -1.023E+02                                 F               0         Blade 1 Z translation displacement, node 27, m
        199    2.582E+01                                 F               0         Blade 1 X translation displacement, node 28, m
        200    1.138E+02                                 F               0         Blade 1 Y translation displacement, node 28, m
        201   -1.051E+02                                 F               0         Blade 1 Z translation displacement, node 28, m
        202    9.731E-01, -4.523E-02,  2.260E-01         F               0         Blade 1 X orientation angle, node 1, rad
        203    2.299E-01,  1.236E-01, -9.653E-01         F               0         Blade 1 Y orientation angle, node 1, rad
        204    1.573E-02,  9.913E-01,  1.306E-01         F               0         Blade 1 Z orientation angle, node 1, rad
        205    9.731E-01, -4.523E-02,  2.260E-01         F               0         Blade 1 X orientation angle, node 2, rad
        206    2.299E-01,  1.236E-01, -9.653E-01         F               0         Blade 1 Y orientation angle, node 2, rad
        207    1.573E-02,  9.913E-01,  1.306E-01         F               0         Blade 1 Z orientation angle, node 2, rad
        208    9.998E-01, -1.465E-02, -9.272E-03         F               0         Blade 1 X orientation angle, node 3, rad
        209   -7.277E-03,  1.308E-01, -9.914E-01         F               0         Blade 1 Y orientation angle, node 3, rad
        210    1.573E-02,  9.913E-01,  1.306E-01         F               0         Blade 1 Z orientation angle, node 3, rad
        211    9.987E-01, -9.113E-03, -5.112E-02         F               0         Blade 1 X orientation angle, node 4, rad
        212   -4.949E-02,  1.313E-01, -9.901E-01         F               0         Blade 1 Y orientation angle, node 4, rad
        213    1.573E-02,  9.913E-01,  1.306E-01         F               0         Blade 1 Z orientation angle, node 4, rad
        214    9.965E-01, -4.756E-03, -8.392E-02         F               0         Blade 1 X orientation angle, node 5, rad
        215   -8.257E-02,  1.315E-01, -9.879E-01         F               0         Blade 1 Y orientation angle, node 5, rad
        216    1.573E-02,  9.913E-01,  1.306E-01         F               0         Blade 1 Z orientation angle, node 5, rad
        217    9.939E-01, -1.266E-03, -1.101E-01         F               0         Blade 1 X orientation angle, node 6, rad
        218   -1.090E-01,  1.316E-01, -9.853E-01         F               0         Blade 1 Y orientation angle, node 6, rad
        219    1.573E-02,  9.913E-01,  1.306E-01         F               0         Blade 1 Z orientation angle, node 6, rad
        220    9.913E-01,  1.605E-03, -1.316E-01         F               0         Blade 1 X orientation angle, node 7, rad
        221   -1.306E-01,  1.316E-01, -9.827E-01         F               0         Blade 1 Y orientation angle, node 7, rad
        222    1.573E-02,  9.913E-01,  1.306E-01         F               0         Blade 1 Z orientation angle, node 7, rad
        223    9.888E-01,  3.993E-03, -1.494E-01         F               0         Blade 1 X orientation angle, node 8, rad
        224   -1.486E-01,  1.315E-01, -9.801E-01         F               0         Blade 1 Y orientation angle, node 8, rad
        225    1.573E-02,  9.913E-01,  1.306E-01         F               0         Blade 1 Z orientation angle, node 8, rad
        226    9.864E-01,  6.013E-03, -1.644E-01         F               0         Blade 1 X orientation angle, node 9, rad
        227   -1.638E-01,  1.315E-01, -9.777E-01         F               0         Blade 1 Y orientation angle, node 9, rad