
Linearized model: Predictions were generated on 19-Dec-2023 at 09:27:32 using OpenFAST, compiled as a 64-bit application using single precision at commit v3.5.1
 linked with  NWTC Subroutine Library; ElastoDyn; InflowWind; AeroDyn; ServoDyn; HydroDyn; MoorDyn (v2.0.0, 2023-09-18)

Description from the FAST input file: CCT-9 Campign 4 model. Input files to be run with OpenFAST 3.5.0. GitHub branch from Lu Wang (https://github.com/luwang00/openfast/tree/dev) compiled on March 7, 2023.

Simulation information:
   Simulation time:                  1001.0000 s
   Rotor Speed:                         1.0416 rad/s
   Azimuth:                             6.1681 rad
   Wind Speed:                         12.0000 m/s
   Number of continuous states:         0
   Number of discrete states:           0
   Number of constraint states:         0
   Number of inputs:                 1746
   Number of outputs:                   4
   Jacobians included in this file?    No

Order of inputs:
     Column   Operating Point                     Rotating Frame? Derivative Order Description
   ---------- ---------------                     --------------- ---------------- -----------
          1    1.511E+01                                 F               0         Tower X translation displacement, node 1, m
          2   -8.607E-01                                 F               0         Tower Y translation displacement, node 1, m
          3   -4.385E-01                                 F               0         Tower Z translation displacement, node 1, m
          4    1.702E+01                                 F               0         Tower X translation displacement, node 2, m
          5   -1.303E+00                                 F               0         Tower Y translation displacement, node 2, m
          6   -5.944E-01                                 F               0         Tower Z translation displacement, node 2, m
          7    1.896E+01                                 F               0         Tower X translation displacement, node 3, m
          8   -1.748E+00                                 F               0         Tower Y translation displacement, node 3, m
          9   -7.558E-01                                 F               0         Tower Z translation displacement, node 3, m
         10    2.092E+01                                 F               0         Tower X translation displacement, node 4, m
         11   -2.196E+00                                 F               0         Tower Y translation displacement, node 4, m
         12   -9.214E-01                                 F               0         Tower Z translation displacement, node 4, m
         13    2.291E+01                                 F               0         Tower X translation displacement, node 5, m
         14   -2.646E+00                                 F               0         Tower Y translation displacement, node 5, m
         15   -1.091E+00                                 F               0         Tower Z translation displacement, node 5, m
         16    2.492E+01                                 F               0         Tower X translation displacement, node 6, m
         17   -3.099E+00                                 F               0         Tower Y translation displacement, node 6, m
         18   -1.263E+00                                 F               0         Tower Z translation displacement, node 6, m
         19    2.694E+01                                 F               0         Tower X translation displacement, node 7, m
         20   -3.553E+00                                 F               0         Tower Y translation displacement, node 7, m
         21   -1.438E+00                                 F               0         Tower Z translation displacement, node 7, m
         22    2.897E+01                                 F               0         Tower X translation displacement, node 8, m
         23   -4.008E+00                                 F               0         Tower Y translation displacement, node 8, m
         24   -1.614E+00                                 F               0         Tower Z translation displacement, node 8, m
         25    3.101E+01                                 F               0         Tower X translation displacement, node 9, m
         26   -4.464E+00                                 F               0         Tower Y translation displacement, node 9, m
         27   -1.792E+00                                 F               0         Tower Z translation displacement, node 9, m
         28    3.305E+01                                 F               0         Tower X translation displacement, node 10, m
         29   -4.921E+00                                 F               0         Tower Y translation displacement, node 10, m
         30   -1.971E+00                                 F               0         Tower Z translation displacement, node 10, m
         31    3.510E+01                                 F               0         Tower X translation displacement, node 11, m
         32   -5.379E+00                                 F               0         Tower Y translation displacement, node 11, m
         33   -2.151E+00                                 F               0         Tower Z translation displacement, node 11, m
         34    9.881E-01,  1.641E-02, -1.527E-01         F               0         Tower X orientation angle, node 1, rad
         35   -1.076E-02,  9.992E-01,  3.775E-02         F               0         Tower Y orientation angle, node 1, rad
         36    1.532E-01, -3.566E-02,  9.876E-01         F               0         Tower Z orientation angle, node 1, rad
         37    9.877E-01,  1.651E-02, -1.552E-01         F               0         Tower X orientation angle, node 2, rad
         38   -1.072E-02,  9.992E-01,  3.805E-02         F               0         Tower Y orientation angle, node 2, rad
         39    1.558E-01, -3.592E-02,  9.871E-01         F               0         Tower Z orientation angle, node 2, rad
         40    9.874E-01,  1.659E-02, -1.575E-01         F               0         Tower X orientation angle, node 3, rad
         41   -1.067E-02,  9.992E-01,  3.832E-02         F               0         Tower Y orientation angle, node 3, rad
         42    1.580E-01, -3.615E-02,  9.868E-01         F               0         Tower Z orientation angle, node 3, rad
         43    9.871E-01,  1.666E-02, -1.595E-01         F               0         Tower X orientation angle, node 4, rad
         44   -1.064E-02,  9.992E-01,  3.855E-02         F               0         Tower Y orientation angle, node 4, rad
         45    1.600E-01, -3.636E-02,  9.864E-01         F               0         Tower Z orientation angle, node 4, rad
         46    9.868E-01,  1.672E-02, -1.611E-01         F               0         Tower X orientation angle, node 5, rad
         47   -1.060E-02,  9.992E-01,  3.875E-02         F               0         Tower Y orientation angle, node 5, rad
         48    1.616E-01, -3.653E-02,  9.862E-01         F               0         Tower Z orientation angle, node 5, rad
         49    9.866E-01,  1.677E-02, -1.624E-01         F               0         Tower X orientation angle, node 6, rad
         50   -1.058E-02,  9.992E-01,  3.892E-02         F               0         Tower Y orientation angle, node 6, rad
         51    1.629E-01, -3.668E-02,  9.860E-01         F               0         Tower Z orientation angle, node 6, rad
         52    9.864E-01,  1.681E-02, -1.634E-01         F               0         Tower X orientation angle, node 7, rad
         53   -1.055E-02,  9.992E-01,  3.906E-02         F               0         Tower Y orientation angle, node 7, rad
         54    1.640E-01, -3.680E-02,  9.858E-01         F               0         Tower Z orientation angle, node 7, rad
         55    9.863E-01,  1.684E-02, -1.642E-01         F               0         Tower X orientation angle, node 8, rad
         56   -1.054E-02,  9.992E-01,  3.916E-02         F               0         Tower Y orientation angle, node 8, rad
         57    1.647E-01, -3.689E-02,  9.856E-01         F               0         Tower Z orientation angle, node 8, rad
         58    9.862E-01,  1.686E-02, -1.647E-01         F               0         Tower X orientation angle, node 9, rad
         59   -1.052E-02,  9.992E-01,  3.924E-02         F               0         Tower Y orientation angle, node 9, rad
         60    1.653E-01, -3.696E-02,  9.856E-01         F               0         Tower Z orientation angle, node 9, rad
         61    9.861E-01,  1.687E-02, -1.651E-01         F               0         Tower X orientation angle, node 10, rad
         62   -1.052E-02,  9.992E-01,  3.929E-02         F               0         Tower Y orientation angle, node 10, rad
         63    1.656E-01, -3.701E-02,  9.855E-01         F               0         Tower Z orientation angle, node 10, rad
         64    9.861E-01,  1.688E-02, -1.653E-01         F               0         Tower X orientation angle, node 11, rad
         65   -1.051E-02,  9.992E-01,  3.931E-02         F               0         Tower Y orientation angle, node 11, rad
         66    1.658E-01, -3.703E-02,  9.855E-01         F               0         Tower Z orientation angle, node 11, rad
         67    2.057E-04                                 F               0         Tower X translation velocity, node 1, m/s
         68   -3.033E-03                                 F               0         Tower Y translation velocity, node 1, m/s
         69    1.979E-03                                 F               0         Tower Z translation velocity, node 1, m/s
         70    5.487E-04                                 F               0         Tower X translation velocity, node 2, m/s
         71   -5.482E-03                                 F               0         Tower Y translation velocity, node 2, m/s
         72    1.837E-03                                 F               0         Tower Z translation velocity, node 2, m/s
         73    9.745E-04                                 F               0         Tower X translation velocity, node 3, m/s
         74   -7.971E-03                                 F               0         Tower Y translation velocity, node 3, m/s
         75    1.678E-03                                 F               0         Tower Z translation velocity, node 3, m/s
         76    1.464E-03                                 F               0         Tower X translation velocity, node 4, m/s
         77   -1.049E-02                                 F               0         Tower Y translation velocity, node 4, m/s
         78    1.507E-03                                 F               0         Tower Z translation velocity, node 4, m/s
         79    2.008E-03                                 F               0         Tower X translation velocity, node 5, m/s
         80   -1.304E-02                                 F               0         Tower Y translation velocity, node 5, m/s
         81    1.324E-03                                 F               0         Tower Z translation velocity, node 5, m/s
         82    2.596E-03                                 F               0         Tower X translation velocity, node 6, m/s
         83   -1.562E-02                                 F               0         Tower Y translation velocity, node 6, m/s
         84    1.131E-03                                 F               0         Tower Z translation velocity, node 6, m/s
         85    3.217E-03                                 F               0         Tower X translation velocity, node 7, m/s
         86   -1.822E-02                                 F               0         Tower Y translation velocity, node 7, m/s
         87    9.312E-04                                 F               0         Tower Z translation velocity, node 7, m/s
         88    3.866E-03                                 F               0         Tower X translation velocity, node 8, m/s
         89   -2.084E-02                                 F               0         Tower Y translation velocity, node 8, m/s
         90    7.250E-04                                 F               0         Tower Z translation velocity, node 8, m/s
         91    4.536E-03                                 F               0         Tower X translation velocity, node 9, m/s
         92   -2.347E-02                                 F               0         Tower Y translation velocity, node 9, m/s
         93    5.142E-04                                 F               0         Tower Z translation velocity, node 9, m/s
         94    5.220E-03                                 F               0         Tower X translation velocity, node 10, m/s
         95   -2.612E-02                                 F               0         Tower Y translation velocity, node 10, m/s
         96    3.001E-04                                 F               0         Tower Z translation velocity, node 10, m/s
         97    5.912E-03                                 F               0         Tower X translation velocity, node 11, m/s
         98   -2.877E-02                                 F               0         Tower Y translation velocity, node 11, m/s
         99    8.418E-05                                 F               0         Tower Z translation velocity, node 11, m/s
        100    3.655E+01                                 F               0         Hub X translation displacement, node 1, m
        101   -5.852E+00                                 F               0         Hub Y translation displacement, node 1, m
        102   -4.798E-01                                 F               0         Hub Z translation displacement, node 1, m
        103    9.634E-01,  2.065E-02, -2.674E-01         F               0         Hub X orientation angle, node 1, rad
        104   -4.122E-02,  9.966E-01, -7.155E-02         F               0         Hub Y orientation angle, node 1, rad
        105    2.650E-01,  7.995E-02,  9.609E-01         F               0         Hub Z orientation angle, node 1, rad
        106    1.004E+00                                 F               0         Hub X rotation velocity, node 1, rad/s
        107    2.158E-02                                 F               0         Hub Y rotation velocity, node 1, rad/s
        108   -2.787E-01                                 F               0         Hub Z rotation velocity, node 1, rad/s
        109    9.642E-01, -8.920E-03, -2.651E-01         F               0         Blade root 1 X orientation angle, node 1, rad
        110   -1.262E-02,  9.968E-01, -7.945E-02         F               0         Blade root 1 Y orientation angle, node 1, rad
        111    2.650E-01,  7.995E-02,  9.609E-01         F               0         Blade root 1 Z orientation angle, node 1, rad
        112    9.555E-01,  3.337E-02, -2.930E-01         F               0         Blade root 2 X orientation angle, node 1, rad
        113    2.786E-01, -4.283E-01,  8.597E-01         F               0         Blade root 2 Y orientation angle, node 1, rad
        114   -9.679E-02, -9.030E-01, -4.185E-01         F               0         Blade root 2 Z orientation angle, node 1, rad
        115    9.691E-01,  3.748E-02, -2.436E-01         F               0         Blade root 3 X orientation angle, node 1, rad
        116   -1.802E-01, -5.667E-01, -8.040E-01         F               0         Blade root 3 Y orientation angle, node 1, rad
        117   -1.682E-01,  8.231E-01, -5.424E-01         F               0         Blade root 3 Z orientation angle, node 1, rad
        118    3.744E+01                                 F               0         Blade 1 X translation displacement, node 1, m
        119   -5.409E+00                                 F               0         Blade 1 Y translation displacement, node 1, m
        120   -6.659E-01                                 F               0         Blade 1 Z translation displacement, node 1, m
        121    3.765E+01                                 F               0         Blade 1 X translation displacement, node 2, m
        122   -5.302E+00                                 F               0         Blade 1 Y translation displacement, node 2, m
        123   -7.107E-01                                 F               0         Blade 1 Z translation displacement, node 2, m
        124    4.057E+01                                 F               0         Blade 1 X translation displacement, node 3, m
        125   -3.851E+00                                 F               0         Blade 1 Y translation displacement, node 3, m
        126   -1.320E+00                                 F               0         Blade 1 Z translation displacement, node 3, m
        127    4.119E+01                                 F               0         Blade 1 X translation displacement, node 4, m
        128   -3.542E+00                                 F               0         Blade 1 Y translation displacement, node 4, m
        129   -1.450E+00                                 F               0         Blade 1 Z translation displacement, node 4, m
        130    4.181E+01                                 F               0         Blade 1 X translation displacement, node 5, m
        131   -3.232E+00                                 F               0         Blade 1 Y translation displacement, node 5, m
        132   -1.580E+00                                 F               0         Blade 1 Z translation displacement, node 5, m
        133    4.243E+01                                 F               0         Blade 1 X translation displacement, node 6, m
        134   -2.923E+00                                 F               0         Blade 1 Y translation displacement, node 6, m
        135   -1.710E+00                                 F               0         Blade 1 Z translation displacement, node 6, m
        136    4.305E+01                                 F               0         Blade 1 X translation displacement, node 7, m
        137   -2.614E+00                                 F               0         Blade 1 Y translation displacement, node 7, m
        138   -1.840E+00                                 F               0         Blade 1 Z translation displacement, node 7, m
        139    4.367E+01                                 F               0         Blade 1 X translation displacement, node 8, m
        140   -2.305E+00                                 F               0         Blade 1 Y translation displacement, node 8, m
        141   -1.970E+00                                 F               0         Blade 1 Z translation displacement, node 8, m
        142    4.429E+01                                 F               0         Blade 1 X translation displacement, node 9, m
        143   -1.996E+00                                 F               0         Blade 1 Y translation displacement, node 9, m
        144   -2.100E+00                                 F               0         Blade 1 Z translation displacement, node 9, m
        145    4.491E+01                                 F               0         Blade 1 X translation displacement, node 10, m
        146   -1.686E+00                                 F               0         Blade 1 Y translation displacement, node 10, m
        147   -2.230E+00                                 F               0         Blade 1 Z translation displacement, node 10, m
        148    4.553E+01                                 F               0         Blade 1 X translation displacement, node 11, m
        149   -1.377E+00                                 F               0         Blade 1 Y translation displacement, node 11, m
        150   -2.360E+00                                 F               0         Blade 1 Z translation displacement, node 11, m
        151    4.615E+01                                 F               0         Blade 1 X translation displacement, node 12, m
        152   -1.068E+00                                 F               0         Blade 1 Y translation displacement, node 12, m
        153   -2.489E+00                                 F               0         Blade 1 Z translation displacement, node 12, m
        154    4.677E+01                                 F               0         Blade 1 X translation displacement, node 13, m
        155   -7.588E-01                                 F               0         Blade 1 Y translation displacement, node 13, m
        156   -2.619E+00                                 F               0         Blade 1 Z translation displacement, node 13, m
        157    4.739E+01                                 F               0         Blade 1 X translation displacement, node 14, m
        158   -4.496E-01                                 F               0         Blade 1 Y translation displacement, node 14, m
        159   -2.749E+00                                 F               0         Blade 1 Z translation displacement, node 14, m
        160    4.801E+01                                 F               0         Blade 1 X translation displacement, node 15, m
        161   -1.404E-01                                 F               0         Blade 1 Y translation displacement, node 15, m
        162   -2.879E+00                                 F               0         Blade 1 Z translation displacement, node 15, m
        163    4.863E+01                                 F               0         Blade 1 X translation displacement, node 16, m
        164    1.688E-01                                 F               0         Blade 1 Y translation displacement, node 16, m
        165   -3.009E+00                                 F               0         Blade 1 Z translation displacement, node 16, m
        166    4.925E+01                                 F               0         Blade 1 X translation displacement, node 17, m
        167    4.780E-01                                 F               0         Blade 1 Y translation displacement, node 17, m
        168   -3.139E+00                                 F               0         Blade 1 Z translation displacement, node 17, m
        169    4.987E+01                                 F               0         Blade 1 X translation displacement, node 18, m
        170    7.872E-01                                 F               0         Blade 1 Y translation displacement, node 18, m
        171   -3.269E+00                                 F               0         Blade 1 Z translation displacement, node 18, m
        172    5.049E+01                                 F               0         Blade 1 X translation displacement, node 19, m
        173    1.096E+00                                 F               0         Blade 1 Y translation displacement, node 19, m
        174   -3.399E+00                                 F               0         Blade 1 Z translation displacement, node 19, m
        175    5.111E+01                                 F               0         Blade 1 X translation displacement, node 20, m
        176    1.406E+00                                 F               0         Blade 1 Y translation displacement, node 20, m
        177   -3.529E+00                                 F               0         Blade 1 Z translation displacement, node 20, m
        178    5.174E+01                                 F               0         Blade 1 X translation displacement, node 21, m
        179    1.715E+00                                 F               0         Blade 1 Y translation displacement, node 21, m
        180   -3.659E+00                                 F               0         Blade 1 Z translation displacement, node 21, m
        181    5.236E+01                                 F               0         Blade 1 X translation displacement, node 22, m
        182    2.024E+00                                 F               0         Blade 1 Y translation displacement, node 22, m
        183   -3.788E+00                                 F               0         Blade 1 Z translation displacement, node 22, m
        184    5.298E+01                                 F               0         Blade 1 X translation displacement, node 23, m
        185    2.333E+00                                 F               0         Blade 1 Y translation displacement, node 23, m
        186   -3.918E+00                                 F               0         Blade 1 Z translation displacement, node 23, m
        187    5.360E+01                                 F               0         Blade 1 X translation displacement, node 24, m
        188    2.642E+00                                 F               0         Blade 1 Y translation displacement, node 24, m
        189   -4.048E+00                                 F               0         Blade 1 Z translation displacement, node 24, m
        190    5.422E+01                                 F               0         Blade 1 X translation displacement, node 25, m
        191    2.952E+00                                 F               0         Blade 1 Y translation displacement, node 25, m
        192   -4.178E+00                                 F               0         Blade 1 Z translation displacement, node 25, m
        193    5.484E+01                                 F               0         Blade 1 X translation displacement, node 26, m
        194    3.261E+00                                 F               0         Blade 1 Y translation displacement, node 26, m
        195   -4.308E+00                                 F               0         Blade 1 Z translation displacement, node 26, m
        196    5.546E+01                                 F               0         Blade 1 X translation displacement, node 27, m
        197    3.570E+00                                 F               0         Blade 1 Y translation displacement, node 27, m
        198   -4.438E+00                                 F               0         Blade 1 Z translation displacement, node 27, m
        199    5.598E+01                                 F               0         Blade 1 X translation displacement, node 28, m
        200    3.832E+00                                 F               0         Blade 1 Y translation displacement, node 28, m
        201   -4.548E+00                                 F               0         Blade 1 Z translation displacement, node 28, m
        202    8.638E-01, -4.625E-01, -1.997E-01         F               0         Blade 1 X orientation angle, node 1, rad
        203    4.284E-01,  8.830E-01, -1.916E-01         F               0         Blade 1 Y orientation angle, node 1, rad
        204    2.650E-01,  7.995E-02,  9.609E-01         F               0         Blade 1 Z orientation angle, node 1, rad
        205    8.638E-01, -4.625E-01, -1.997E-01         F               0         Blade 1 X orientation angle, node 2, rad
        206    4.284E-01,  8.830E-01, -1.916E-01         F               0         Blade 1 Y orientation angle, node 2, rad
        207    2.650E-01,  7.995E-02,  9.609E-01         F               0         Blade 1 Z orientation angle, node 2, rad
        208    9.408E-01, -2.400E-01, -2.394E-01         F               0         Blade 1 X orientation angle, node 3, rad
        209    2.115E-01,  9.675E-01, -1.388E-01         F               0         Blade 1 Y orientation angle, node 3, rad
        210    2.650E-01,  7.995E-02,  9.609E-01         F               0         Blade 1 Z orientation angle, node 3, rad
        211    9.489E-01, -1.989E-01, -2.451E-01         F               0         Blade 1 X orientation angle, node 4, rad
        212    1.716E-01,  9.767E-01, -1.286E-01         F               0         Blade 1 Y orientation angle, node 4, rad
        213    2.650E-01,  7.995E-02,  9.609E-01         F               0         Blade 1 Z orientation angle, node 4, rad
        214    9.540E-01, -1.665E-01, -2.492E-01         F               0         Blade 1 X orientation angle, node 5, rad
        215    1.400E-01,  9.828E-01, -1.204E-01         F               0         Blade 1 Y orientation angle, node 5, rad
        216    2.650E-01,  7.995E-02,  9.609E-01         F               0         Blade 1 Z orientation angle, node 5, rad
        217    9.574E-01, -1.403E-01, -2.523E-01         F               0         Blade 1 X orientation angle, node 6, rad
        218    1.147E-01,  9.869E-01, -1.137E-01         F               0         Blade 1 Y orientation angle, node 6, rad
        219    2.650E-01,  7.995E-02,  9.609E-01         F               0         Blade 1 Z orientation angle, node 6, rad
        220    9.597E-01, -1.188E-01, -2.547E-01         F               0         Blade 1 X orientation angle, node 7, rad
        221    9.376E-02,  9.897E-01, -1.082E-01         F               0         Blade 1 Y orientation angle, node 7, rad
        222    2.650E-01,  7.995E-02,  9.609E-01         F               0         Blade 1 Z orientation angle, node 7, rad
        223    9.612E-01, -1.008E-01, -2.567E-01         F               0         Blade 1 X orientation angle, node 8, rad
        224    7.632E-02,  9.917E-01, -1.036E-01         F               0         Blade 1 Y orientation angle, node 8, rad
        225    2.650E-01,  7.995E-02,  9.609E-01         F               0         Blade 1 Z orientation angle, node 8, rad
        226    9.623E-01, -8.554E-02, -2.582E-01         F               0         Blade 1 X orientation angle, node 9, rad
        227    6.155E-02,  9.931E-01, -9.960E-02         F               0         Blade 1 Y orientation angle, node 9, rad