
Linearized model: Predictions were generated on 19-Dec-2023 at 09:27:32 using OpenFAST, compiled as a 64-bit application using single precision at commit v3.5.1
 linked with  NWTC Subroutine Library; ElastoDyn; InflowWind; AeroDyn; ServoDyn; HydroDyn; MoorDyn (v2.0.0, 2023-09-18)

Description from the FAST input file: CCT-9 Campign 4 model. Input files to be run with OpenFAST 3.5.0. GitHub branch from Lu Wang (https://github.com/luwang00/openfast/tree/dev) compiled on March 7, 2023.

Simulation information:
   Simulation time:                  1000.5000 s
   Rotor Speed:                         1.0418 rad/s
   Azimuth:                             5.6472 rad
   Wind Speed:                         12.0000 m/s
   Number of continuous states:         0
   Number of discrete states:           0
   Number of constraint states:         0
   Number of inputs:                  303
   Number of outputs:                   1
   Jacobians included in this file?    No

Order of inputs:
     Column   Operating Point                     Rotating Frame? Derivative Order Description
   ---------- ---------------                     --------------- ---------------- -----------
          1   -1.080E+01                                 F               0         X-component position of node 1 (hub), m
          2    0.000E+00                                 F               0         Y-component position of node 1 (hub), m
          3    1.497E+02                                 F               0         Z-component position of node 1 (hub), m
          4    2.691E+01                                 F               0         X-component position of node 2 (blade 1, node 1), m
          5   -2.710E+00                                 F               0         Y-component position of node 2 (blade 1, node 1), m
          6    1.537E+02                                 F               0         Z-component position of node 2 (blade 1, node 1), m
          7    2.719E+01                                 F               0         X-component position of node 3 (blade 1, node 2), m
          8   -1.955E+00                                 F               0         Y-component position of node 3 (blade 1, node 2), m
          9    1.547E+02                                 F               0         Z-component position of node 3 (blade 1, node 2), m
         10    3.098E+01                                 F               0         X-component position of node 4 (blade 1, node 3), m
         11    8.307E+00                                 F               0         Y-component position of node 4 (blade 1, node 3), m
         12    1.692E+02                                 F               0         Z-component position of node 4 (blade 1, node 3), m
         13    3.179E+01                                 F               0         X-component position of node 5 (blade 1, node 4), m
         14    1.049E+01                                 F               0         Y-component position of node 5 (blade 1, node 4), m
         15    1.723E+02                                 F               0         Z-component position of node 5 (blade 1, node 4), m
         16    3.260E+01                                 F               0         X-component position of node 6 (blade 1, node 5), m
         17    1.268E+01                                 F               0         Y-component position of node 6 (blade 1, node 5), m
         18    1.754E+02                                 F               0         Z-component position of node 6 (blade 1, node 5), m
         19    3.341E+01                                 F               0         X-component position of node 7 (blade 1, node 6), m
         20    1.487E+01                                 F               0         Y-component position of node 7 (blade 1, node 6), m
         21    1.785E+02                                 F               0         Z-component position of node 7 (blade 1, node 6), m
         22    3.422E+01                                 F               0         X-component position of node 8 (blade 1, node 7), m
         23    1.705E+01                                 F               0         Y-component position of node 8 (blade 1, node 7), m
         24    1.816E+02                                 F               0         Z-component position of node 8 (blade 1, node 7), m
         25    3.503E+01                                 F               0         X-component position of node 9 (blade 1, node 8), m
         26    1.924E+01                                 F               0         Y-component position of node 9 (blade 1, node 8), m
         27    1.847E+02                                 F               0         Z-component position of node 9 (blade 1, node 8), m
         28    3.584E+01                                 F               0         X-component position of node 10 (blade 1, node 9), m
         29    2.143E+01                                 F               0         Y-component position of node 10 (blade 1, node 9), m
         30    1.877E+02                                 F               0         Z-component position of node 10 (blade 1, node 9), m
         31    3.665E+01                                 F               0         X-component position of node 11 (blade 1, node 10), m
         32    2.361E+01                                 F               0         Y-component position of node 11 (blade 1, node 10), m
         33    1.908E+02                                 F               0         Z-component position of node 11 (blade 1, node 10), m
         34    3.746E+01                                 F               0         X-component position of node 12 (blade 1, node 11), m
         35    2.580E+01                                 F               0         Y-component position of node 12 (blade 1, node 11), m
         36    1.939E+02                                 F               0         Z-component position of node 12 (blade 1, node 11), m
         37    3.827E+01                                 F               0         X-component position of node 13 (blade 1, node 12), m
         38    2.799E+01                                 F               0         Y-component position of node 13 (blade 1, node 12), m
         39    1.970E+02                                 F               0         Z-component position of node 13 (blade 1, node 12), m
         40    3.908E+01                                 F               0         X-component position of node 14 (blade 1, node 13), m
         41    3.017E+01                                 F               0         Y-component position of node 14 (blade 1, node 13), m
         42    2.001E+02                                 F               0         Z-component position of node 14 (blade 1, node 13), m
         43    3.989E+01                                 F               0         X-component position of node 15 (blade 1, node 14), m
         44    3.236E+01                                 F               0         Y-component position of node 15 (blade 1, node 14), m
         45    2.032E+02                                 F               0         Z-component position of node 15 (blade 1, node 14), m
         46    4.070E+01                                 F               0         X-component position of node 16 (blade 1, node 15), m
         47    3.455E+01                                 F               0         Y-component position of node 16 (blade 1, node 15), m
         48    2.063E+02                                 F               0         Z-component position of node 16 (blade 1, node 15), m
         49    4.150E+01                                 F               0         X-component position of node 17 (blade 1, node 16), m
         50    3.673E+01                                 F               0         Y-component position of node 17 (blade 1, node 16), m
         51    2.093E+02                                 F               0         Z-component position of node 17 (blade 1, node 16), m
         52    4.231E+01                                 F               0         X-component position of node 18 (blade 1, node 17), m
         53    3.892E+01                                 F               0         Y-component position of node 18 (blade 1, node 17), m
         54    2.124E+02                                 F               0         Z-component position of node 18 (blade 1, node 17), m
         55    4.312E+01                                 F               0         X-component position of node 19 (blade 1, node 18), m
         56    4.111E+01                                 F               0         Y-component position of node 19 (blade 1, node 18), m
         57    2.155E+02                                 F               0         Z-component position of node 19 (blade 1, node 18), m
         58    4.393E+01                                 F               0         X-component position of node 20 (blade 1, node 19), m
         59    4.329E+01                                 F               0         Y-component position of node 20 (blade 1, node 19), m
         60    2.186E+02                                 F               0         Z-component position of node 20 (blade 1, node 19), m
         61    4.474E+01                                 F               0         X-component position of node 21 (blade 1, node 20), m
         62    4.548E+01                                 F               0         Y-component position of node 21 (blade 1, node 20), m
         63    2.217E+02                                 F               0         Z-component position of node 21 (blade 1, node 20), m
         64    4.555E+01                                 F               0         X-component position of node 22 (blade 1, node 21), m
         65    4.767E+01                                 F               0         Y-component position of node 22 (blade 1, node 21), m
         66    2.248E+02                                 F               0         Z-component position of node 22 (blade 1, node 21), m
         67    4.636E+01                                 F               0         X-component position of node 23 (blade 1, node 22), m
         68    4.985E+01                                 F               0         Y-component position of node 23 (blade 1, node 22), m
         69    2.279E+02                                 F               0         Z-component position of node 23 (blade 1, node 22), m
         70    4.717E+01                                 F               0         X-component position of node 24 (blade 1, node 23), m
         71    5.204E+01                                 F               0         Y-component position of node 24 (blade 1, node 23), m
         72    2.309E+02                                 F               0         Z-component position of node 24 (blade 1, node 23), m
         73    4.798E+01                                 F               0         X-component position of node 25 (blade 1, node 24), m
         74    5.423E+01                                 F               0         Y-component position of node 25 (blade 1, node 24), m
         75    2.340E+02                                 F               0         Z-component position of node 25 (blade 1, node 24), m
         76    4.879E+01                                 F               0         X-component position of node 26 (blade 1, node 25), m
         77    5.641E+01                                 F               0         Y-component position of node 26 (blade 1, node 25), m
         78    2.371E+02                                 F               0         Z-component position of node 26 (blade 1, node 25), m
         79    4.960E+01                                 F               0         X-component position of node 27 (blade 1, node 26), m
         80    5.860E+01                                 F               0         Y-component position of node 27 (blade 1, node 26), m
         81    2.402E+02                                 F               0         Z-component position of node 27 (blade 1, node 26), m
         82    5.041E+01                                 F               0         X-component position of node 28 (blade 1, node 27), m
         83    6.079E+01                                 F               0         Y-component position of node 28 (blade 1, node 27), m
         84    2.433E+02                                 F               0         Z-component position of node 28 (blade 1, node 27), m
         85    5.109E+01                                 F               0         X-component position of node 29 (blade 1, node 28), m
         86    6.264E+01                                 F               0         Y-component position of node 29 (blade 1, node 28), m
         87    2.459E+02                                 F               0         Z-component position of node 29 (blade 1, node 28), m
         88    2.597E+01                                 F               0         X-component position of node 30 (blade 2, node 1), m
         89   -1.136E+01                                 F               0         Y-component position of node 30 (blade 2, node 1), m
         90    1.496E+02                                 F               0         Z-component position of node 30 (blade 2, node 1), m
         91    2.603E+01                                 F               0         X-component position of node 31 (blade 2, node 2), m
         92   -1.269E+01                                 F               0         Y-component position of node 31 (blade 2, node 2), m
         93    1.497E+02                                 F               0         Z-component position of node 31 (blade 2, node 2), m
         94    2.676E+01                                 F               0         X-component position of node 32 (blade 2, node 3), m
         95   -3.079E+01                                 F               0         Y-component position of node 32 (blade 2, node 3), m
         96    1.510E+02                                 F               0         Z-component position of node 32 (blade 2, node 3), m
         97    2.692E+01                                 F               0         X-component position of node 33 (blade 2, node 4), m
         98   -3.464E+01                                 F               0         Y-component position of node 33 (blade 2, node 4), m
         99    1.513E+02                                 F               0         Z-component position of node 33 (blade 2, node 4), m
        100    2.708E+01                                 F               0         X-component position of node 34 (blade 2, node 5), m
        101   -3.850E+01                                 F               0         Y-component position of node 34 (blade 2, node 5), m
        102    1.515E+02                                 F               0         Z-component position of node 34 (blade 2, node 5), m
        103    2.723E+01                                 F               0         X-component position of node 35 (blade 2, node 6), m
        104   -4.235E+01                                 F               0         Y-component position of node 35 (blade 2, node 6), m
        105    1.518E+02                                 F               0         Z-component position of node 35 (blade 2, node 6), m
        106    2.739E+01                                 F               0         X-component position of node 36 (blade 2, node 7), m
        107   -4.621E+01                                 F               0         Y-component position of node 36 (blade 2, node 7), m
        108    1.521E+02                                 F               0         Z-component position of node 36 (blade 2, node 7), m
        109    2.755E+01                                 F               0         X-component position of node 37 (blade 2, node 8), m
        110   -5.007E+01                                 F               0         Y-component position of node 37 (blade 2, node 8), m
        111    1.523E+02                                 F               0         Z-component position of node 37 (blade 2, node 8), m
        112    2.770E+01                                 F               0         X-component position of node 38 (blade 2, node 9), m
        113   -5.392E+01                                 F               0         Y-component position of node 38 (blade 2, node 9), m
        114    1.526E+02                                 F               0         Z-component position of node 38 (blade 2, node 9), m
        115    2.786E+01                                 F               0         X-component position of node 39 (blade 2, node 10), m
        116   -5.778E+01                                 F               0         Y-component position of node 39 (blade 2, node 10), m
        117    1.529E+02                                 F               0         Z-component position of node 39 (blade 2, node 10), m
        118    2.802E+01                                 F               0         X-component position of node 40 (blade 2, node 11), m
        119   -6.163E+01                                 F               0         Y-component position of node 40 (blade 2, node 11), m
        120    1.531E+02                                 F               0         Z-component position of node 40 (blade 2, node 11), m
        121    2.818E+01                                 F               0         X-component position of node 41 (blade 2, node 12), m
        122   -6.549E+01                                 F               0         Y-component position of node 41 (blade 2, node 12), m
        123    1.534E+02                                 F               0         Z-component position of node 41 (blade 2, node 12), m
        124    2.833E+01                                 F               0         X-component position of node 42 (blade 2, node 13), m
        125   -6.934E+01                                 F               0         Y-component position of node 42 (blade 2, node 13), m
        126    1.537E+02                                 F               0         Z-component position of node 42 (blade 2, node 13), m
        127    2.849E+01                                 F               0         X-component position of node 43 (blade 2, node 14), m
        128   -7.320E+01                                 F               0         Y-component position of node 43 (blade 2, node 14), m
        129    1.539E+02                                 F               0         Z-component position of node 43 (blade 2, node 14), m
        130    2.865E+01                                 F               0         X-component position of node 44 (blade 2, node 15), m
        131   -7.705E+01                                 F               0         Y-component position of node 44 (blade 2, node 15), m
        132    1.542E+02                                 F               0         Z-component position of node 44 (blade 2, node 15), m
        133    2.880E+01                                 F               0         X-component position of node 45 (blade 2, node 16), m
        134   -8.091E+01                                 F               0         Y-component position of node 45 (blade 2, node 16), m
        135    1.545E+02                                 F               0         Z-component position of node 45 (blade 2, node 16), m
        136    2.896E+01                                 F               0         X-component position of node 46 (blade 2, node 17), m
        137   -8.476E+01                                 F               0         Y-component position of node 46 (blade 2, node 17), m
        138    1.547E+02                                 F               0         Z-component position of node 46 (blade 2, node 17), m
        139    2.912E+01                                 F               0         X-component position of node 47 (blade 2, node 18), m
        140   -8.862E+01                                 F               0         Y-component position of node 47 (blade 2, node 18), m
        141    1.550E+02                                 F               0         Z-component position of node 47 (blade 2, node 18), m
        142    2.927E+01                                 F               0         X-component position of node 48 (blade 2, node 19), m
        143   -9.247E+01                                 F               0         Y-component position of node 48 (blade 2, node 19), m
        144    1.553E+02                                 F               0         Z-component position of node 48 (blade 2, node 19), m
        145    2.943E+01                                 F               0         X-component position of node 49 (blade 2, node 20), m
        146   -9.633E+01                                 F               0         Y-component position of node 49 (blade 2, node 20), m
        147    1.555E+02                                 F               0         Z-component position of node 49 (blade 2, node 20), m
        148    2.959E+01                                 F               0         X-component position of node 50 (blade 2, node 21), m
        149   -1.002E+02                                 F               0         Y-component position of node 50 (blade 2, node 21), m
        150    1.558E+02                                 F               0         Z-component position of node 50 (blade 2, node 21), m
        151    2.975E+01                                 F               0         X-component position of node 51 (blade 2, node 22), m
        152   -1.040E+02                                 F               0         Y-component position of node 51 (blade 2, node 22), m
        153    1.561E+02                                 F               0         Z-component position of node 51 (blade 2, node 22), m
        154    2.990E+01                                 F               0         X-component position of node 52 (blade 2, node 23), m
        155   -1.079E+02                                 F               0         Y-component position of node 52 (blade 2, node 23), m
        156    1.563E+02                                 F               0         Z-component position of node 52 (blade 2, node 23), m
        157    3.006E+01                                 F               0         X-component position of node 53 (blade 2, node 24), m
        158   -1.118E+02                                 F               0         Y-component position of node 53 (blade 2, node 24), m
        159    1.566E+02                                 F               0         Z-component position of node 53 (blade 2, node 24), m
        160    3.022E+01                                 F               0         X-component position of node 54 (blade 2, node 25), m
        161   -1.156E+02                                 F               0         Y-component position of node 54 (blade 2, node 25), m
        162    1.569E+02                                 F               0         Z-component position of node 54 (blade 2, node 25), m
        163    3.037E+01                                 F               0         X-component position of node 55 (blade 2, node 26), m
        164   -1.195E+02                                 F               0         Y-component position of node 55 (blade 2, node 26), m
        165    1.571E+02                                 F               0         Z-component position of node 55 (blade 2, node 26), m
        166    3.053E+01                                 F               0         X-component position of node 56 (blade 2, node 27), m
        167   -1.233E+02                                 F               0         Y-component position of node 56 (blade 2, node 27), m
        168    1.574E+02                                 F               0         Z-component position of node 56 (blade 2, node 27), m
        169    3.066E+01                                 F               0         X-component position of node 57 (blade 2, node 28), m
        170   -1.266E+02                                 F               0         Y-component position of node 57 (blade 2, node 28), m
        171    1.576E+02                                 F               0         Z-component position of node 57 (blade 2, node 28), m
        172    2.436E+01                                 F               0         X-component position of node 58 (blade 3, node 1), m
        173   -3.452E+00                                 F               0         Y-component position of node 58 (blade 3, node 1), m
        174    1.445E+02                                 F               0         Z-component position of node 58 (blade 3, node 1), m
        175    2.403E+01                                 F               0         X-component position of node 59 (blade 3, node 2), m
        176   -2.876E+00                                 F               0         Y-component position of node 59 (blade 3, node 2), m
        177    1.433E+02                                 F               0         Z-component position of node 59 (blade 3, node 2), m
        178    1.949E+01                                 F               0         X-component position of node 60 (blade 3, node 3), m
        179    4.956E+00                                 F               0         Y-component position of node 60 (blade 3, node 3), m
        180    1.276E+02                                 F               0         Z-component position of node 60 (blade 3, node 3), m
        181    1.853E+01                                 F               0         X-component position of node 61 (blade 3, node 4), m
        182    6.625E+00                                 F               0         Y-component position of node 61 (blade 3, node 4), m
        183    1.242E+02                                 F               0         Z-component position of node 61 (blade 3, node 4), m
        184    1.756E+01                                 F               0         X-component position of node 62 (blade 3, node 5), m
        185    8.294E+00                                 F               0         Y-component position of node 62 (blade 3, node 5), m
        186    1.209E+02                                 F               0         Z-component position of node 62 (blade 3, node 5), m
        187    1.660E+01                                 F               0         X-component position of node 63 (blade 3, node 6), m
        188    9.962E+00                                 F               0         Y-component position of node 63 (blade 3, node 6), m
        189    1.175E+02                                 F               0         Z-component position of node 63 (blade 3, node 6), m
        190    1.563E+01                                 F               0         X-component position of node 64 (blade 3, node 7), m
        191    1.163E+01                                 F               0         Y-component position of node 64 (blade 3, node 7), m
        192    1.142E+02                                 F               0         Z-component position of node 64 (blade 3, node 7), m
        193    1.466E+01                                 F               0         X-component position of node 65 (blade 3, node 8), m
        194    1.330E+01                                 F               0         Y-component position of node 65 (blade 3, node 8), m
        195    1.108E+02                                 F               0         Z-component position of node 65 (blade 3, node 8), m
        196    1.370E+01                                 F               0         X-component position of node 66 (blade 3, node 9), m
        197    1.497E+01                                 F               0         Y-component position of node 66 (blade 3, node 9), m
        198    1.074E+02                                 F               0         Z-component position of node 66 (blade 3, node 9), m
        199    1.273E+01                                 F               0         X-component position of node 67 (blade 3, node 10), m
        200    1.664E+01                                 F               0         Y-component position of node 67 (blade 3, node 10), m
        201    1.041E+02                                 F               0         Z-component position of node 67 (blade 3, node 10), m
        202    1.176E+01                                 F               0         X-component position of node 68 (blade 3, node 11), m
        203    1.831E+01                                 F               0         Y-component position of node 68 (blade 3, node 11), m
        204    1.007E+02                                 F               0         Z-component position of node 68 (blade 3, node 11), m
        205    1.080E+01                                 F               0         X-component position of node 69 (blade 3, node 12), m
        206    1.997E+01                                 F               0         Y-component position of node 69 (blade 3, node 12), m
        207    9.739E+01                                 F               0         Z-component position of node 69 (blade 3, node 12), m
        208    9.831E+00                                 F               0         X-component position of node 70 (blade 3, node 13), m
        209    2.164E+01                                 F               0         Y-component position of node 70 (blade 3, node 13), m
        210    9.404E+01                                 F               0         Z-component position of node 70 (blade 3, node 13), m
        211    8.865E+00                                 F               0         X-component position of node 71 (blade 3, node 14), m