
Linearized model: Predictions were generated on 19-Dec-2023 at 09:27:32 using OpenFAST, compiled as a 64-bit application using single precision at commit v3.5.1
 linked with  NWTC Subroutine Library; ElastoDyn; InflowWind; AeroDyn; ServoDyn; HydroDyn; MoorDyn (v2.0.0, 2023-09-18)

Description from the FAST input file: CCT-9 Campign 4 model. Input files to be run with OpenFAST 3.5.0. GitHub branch from Lu Wang (https://github.com/luwang00/openfast/tree/dev) compiled on March 7, 2023.

Simulation information:
   Simulation time:                  1006.2250 s
   Rotor Speed:                         1.0409 rad/s
   Azimuth:                             5.3251 rad
   Wind Speed:                         12.0000 m/s
   Number of continuous states:         0
   Number of discrete states:           0
   Number of constraint states:         0
   Number of inputs:                 1746
   Number of outputs:                   4
   Jacobians included in this file?    No

Order of inputs:
     Column   Operating Point                     Rotating Frame? Derivative Order Description
   ---------- ---------------                     --------------- ---------------- -----------
          1    1.511E+01                                 F               0         Tower X translation displacement, node 1, m
          2   -9.204E-01                                 F               0         Tower Y translation displacement, node 1, m
          3   -4.174E-01                                 F               0         Tower Z translation displacement, node 1, m
          4    1.702E+01                                 F               0         Tower X translation displacement, node 2, m
          5   -1.404E+00                                 F               0         Tower Y translation displacement, node 2, m
          6   -5.752E-01                                 F               0         Tower Z translation displacement, node 2, m
          7    1.896E+01                                 F               0         Tower X translation displacement, node 3, m
          8   -1.892E+00                                 F               0         Tower Y translation displacement, node 3, m
          9   -7.386E-01                                 F               0         Tower Z translation displacement, node 3, m
         10    2.093E+01                                 F               0         Tower X translation displacement, node 4, m
         11   -2.383E+00                                 F               0         Tower Y translation displacement, node 4, m
         12   -9.063E-01                                 F               0         Tower Z translation displacement, node 4, m
         13    2.292E+01                                 F               0         Tower X translation displacement, node 5, m
         14   -2.876E+00                                 F               0         Tower Y translation displacement, node 5, m
         15   -1.078E+00                                 F               0         Tower Z translation displacement, node 5, m
         16    2.493E+01                                 F               0         Tower X translation displacement, node 6, m
         17   -3.372E+00                                 F               0         Tower Y translation displacement, node 6, m
         18   -1.252E+00                                 F               0         Tower Z translation displacement, node 6, m
         19    2.695E+01                                 F               0         Tower X translation displacement, node 7, m
         20   -3.870E+00                                 F               0         Tower Y translation displacement, node 7, m
         21   -1.429E+00                                 F               0         Tower Z translation displacement, node 7, m
         22    2.899E+01                                 F               0         Tower X translation displacement, node 8, m
         23   -4.370E+00                                 F               0         Tower Y translation displacement, node 8, m
         24   -1.608E+00                                 F               0         Tower Z translation displacement, node 8, m
         25    3.103E+01                                 F               0         Tower X translation displacement, node 9, m
         26   -4.871E+00                                 F               0         Tower Y translation displacement, node 9, m
         27   -1.788E+00                                 F               0         Tower Z translation displacement, node 9, m
         28    3.307E+01                                 F               0         Tower X translation displacement, node 10, m
         29   -5.372E+00                                 F               0         Tower Y translation displacement, node 10, m
         30   -1.969E+00                                 F               0         Tower Z translation displacement, node 10, m
         31    3.512E+01                                 F               0         Tower X translation displacement, node 11, m
         32   -5.875E+00                                 F               0         Tower Y translation displacement, node 11, m
         33   -2.150E+00                                 F               0         Tower Z translation displacement, node 11, m
         34    9.881E-01,  1.524E-02, -1.529E-01         F               0         Tower X orientation angle, node 1, rad
         35   -9.087E-03,  9.991E-01,  4.088E-02         F               0         Tower Y orientation angle, node 1, rad
         36    1.533E-01, -3.901E-02,  9.874E-01         F               0         Tower Z orientation angle, node 1, rad
         37    9.877E-01,  1.534E-02, -1.554E-01         F               0         Tower X orientation angle, node 2, rad
         38   -9.033E-03,  9.991E-01,  4.123E-02         F               0         Tower Y orientation angle, node 2, rad
         39    1.559E-01, -3.932E-02,  9.870E-01         F               0         Tower Z orientation angle, node 2, rad
         40    9.874E-01,  1.544E-02, -1.577E-01         F               0         Tower X orientation angle, node 3, rad
         41   -8.983E-03,  9.991E-01,  4.154E-02         F               0         Tower Y orientation angle, node 3, rad
         42    1.582E-01, -3.960E-02,  9.866E-01         F               0         Tower Z orientation angle, node 3, rad
         43    9.870E-01,  1.551E-02, -1.597E-01         F               0         Tower X orientation angle, node 4, rad
         44   -8.939E-03,  9.991E-01,  4.181E-02         F               0         Tower Y orientation angle, node 4, rad
         45    1.602E-01, -3.985E-02,  9.863E-01         F               0         Tower Z orientation angle, node 4, rad
         46    9.868E-01,  1.558E-02, -1.613E-01         F               0         Tower X orientation angle, node 5, rad
         47   -8.901E-03,  9.991E-01,  4.205E-02         F               0         Tower Y orientation angle, node 5, rad
         48    1.618E-01, -4.006E-02,  9.860E-01         F               0         Tower Z orientation angle, node 5, rad
         49    9.866E-01,  1.563E-02, -1.626E-01         F               0         Tower X orientation angle, node 6, rad
         50   -8.868E-03,  9.991E-01,  4.224E-02         F               0         Tower Y orientation angle, node 6, rad
         51    1.631E-01, -4.023E-02,  9.858E-01         F               0         Tower Z orientation angle, node 6, rad
         52    9.864E-01,  1.568E-02, -1.636E-01         F               0         Tower X orientation angle, node 7, rad
         53   -8.843E-03,  9.991E-01,  4.240E-02         F               0         Tower Y orientation angle, node 7, rad
         54    1.642E-01, -4.038E-02,  9.856E-01         F               0         Tower Z orientation angle, node 7, rad
         55    9.863E-01,  1.571E-02, -1.644E-01         F               0         Tower X orientation angle, node 8, rad
         56   -8.822E-03,  9.991E-01,  4.252E-02         F               0         Tower Y orientation angle, node 8, rad
         57    1.649E-01, -4.049E-02,  9.855E-01         F               0         Tower Z orientation angle, node 8, rad
         58    9.862E-01,  1.573E-02, -1.649E-01         F               0         Tower X orientation angle, node 9, rad
         59   -8.808E-03,  9.991E-01,  4.261E-02         F               0         Tower Y orientation angle, node 9, rad
         60    1.655E-01, -4.057E-02,  9.854E-01         F               0         Tower Z orientation angle, node 9, rad
         61    9.861E-01,  1.574E-02, -1.653E-01         F               0         Tower X orientation angle, node 10, rad
         62   -8.798E-03,  9.991E-01,  4.267E-02         F               0         Tower Y orientation angle, node 10, rad
         63    1.658E-01, -4.062E-02,  9.853E-01         F               0         Tower Z orientation angle, node 10, rad
         64    9.861E-01,  1.575E-02, -1.655E-01         F               0         Tower X orientation angle, node 11, rad
         65   -8.793E-03,  9.990E-01,  4.270E-02         F               0         Tower Y orientation angle, node 11, rad
         66    1.660E-01, -4.065E-02,  9.853E-01         F               0         Tower Z orientation angle, node 11, rad
         67   -3.406E-04                                 F               0         Tower X translation velocity, node 1, m/s
         68   -1.849E-02                                 F               0         Tower Y translation velocity, node 1, m/s
         69    3.372E-03                                 F               0         Tower Z translation velocity, node 1, m/s
         70   -2.634E-04                                 F               0         Tower X translation velocity, node 2, m/s
         71   -3.097E-02                                 F               0         Tower Y translation velocity, node 2, m/s
         72    2.865E-03                                 F               0         Tower Z translation velocity, node 2, m/s
         73   -2.399E-04                                 F               0         Tower X translation velocity, node 3, m/s
         74   -4.361E-02                                 F               0         Tower Y translation velocity, node 3, m/s
         75    2.356E-03                                 F               0         Tower Z translation velocity, node 3, m/s
         76   -2.507E-04                                 F               0         Tower X translation velocity, node 4, m/s
         77   -5.639E-02                                 F               0         Tower Y translation velocity, node 4, m/s
         78    1.843E-03                                 F               0         Tower Z translation velocity, node 4, m/s
         79   -2.829E-04                                 F               0         Tower X translation velocity, node 5, m/s
         80   -6.928E-02                                 F               0         Tower Y translation velocity, node 5, m/s
         81    1.326E-03                                 F               0         Tower Z translation velocity, node 5, m/s
         82   -3.257E-04                                 F               0         Tower X translation velocity, node 6, m/s
         83   -8.227E-02                                 F               0         Tower Y translation velocity, node 6, m/s
         84    8.036E-04                                 F               0         Tower Z translation velocity, node 6, m/s
         85   -3.705E-04                                 F               0         Tower X translation velocity, node 7, m/s
         86   -9.533E-02                                 F               0         Tower Y translation velocity, node 7, m/s
         87    2.770E-04                                 F               0         Tower Z translation velocity, node 7, m/s
         88   -4.116E-04                                 F               0         Tower X translation velocity, node 8, m/s
         89   -1.085E-01                                 F               0         Tower Y translation velocity, node 8, m/s
         90   -2.547E-04                                 F               0         Tower Z translation velocity, node 8, m/s
         91   -4.453E-04                                 F               0         Tower X translation velocity, node 9, m/s
         92   -1.216E-01                                 F               0         Tower Y translation velocity, node 9, m/s
         93   -7.908E-04                                 F               0         Tower Z translation velocity, node 9, m/s
         94   -4.706E-04                                 F               0         Tower X translation velocity, node 10, m/s
         95   -1.348E-01                                 F               0         Tower Y translation velocity, node 10, m/s
         96   -1.331E-03                                 F               0         Tower Z translation velocity, node 10, m/s
         97   -4.885E-04                                 F               0         Tower X translation velocity, node 11, m/s
         98   -1.481E-01                                 F               0         Tower Y translation velocity, node 11, m/s
         99   -1.873E-03                                 F               0         Tower Z translation velocity, node 11, m/s
        100    3.658E+01                                 F               0         Hub X translation displacement, node 1, m
        101   -6.364E+00                                 F               0         Hub Y translation displacement, node 1, m
        102   -4.787E-01                                 F               0         Hub Z translation displacement, node 1, m
        103    9.633E-01,  1.991E-02, -2.675E-01         F               0         Hub X orientation angle, node 1, rad
        104   -2.244E-01,  6.062E-01, -7.630E-01         F               0         Hub Y orientation angle, node 1, rad
        105    1.470E-01,  7.950E-01,  5.885E-01         F               0         Hub Z orientation angle, node 1, rad
        106    1.004E+00                                 F               0         Hub X rotation velocity, node 1, rad/s
        107    2.074E-02                                 F               0         Hub Y rotation velocity, node 1, rad/s
        108   -2.788E-01                                 F               0         Hub Z rotation velocity, node 1, rad/s
        109    9.696E-01,  1.920E-03, -2.448E-01         F               0         Blade root 1 X orientation angle, node 1, rad
        110   -1.958E-01,  6.066E-01, -7.706E-01         F               0         Blade root 1 Y orientation angle, node 1, rad
        111    1.470E-01,  7.950E-01,  5.885E-01         F               0         Blade root 1 Z orientation angle, node 1, rad
        112    9.558E-01,  8.471E-03, -2.939E-01         F               0         Blade root 2 X orientation angle, node 1, rad
        113    2.680E-01,  3.858E-01,  8.828E-01         F               0         Blade root 2 Y orientation angle, node 1, rad
        114    1.209E-01, -9.225E-01,  3.665E-01         F               0         Blade root 2 Z orientation angle, node 1, rad
        115    9.634E-01,  4.932E-02, -2.636E-01         F               0         Blade root 3 X orientation angle, node 1, rad
        116    1.349E-02, -9.906E-01, -1.360E-01         F               0         Blade root 3 Y orientation angle, node 1, rad
        117   -2.679E-01,  1.275E-01, -9.550E-01         F               0         Blade root 3 Z orientation angle, node 1, rad
        118    3.681E+01                                 F               0         Blade 1 X translation displacement, node 1, m
        119   -1.959E+00                                 F               0         Blade 1 Y translation displacement, node 1, m
        120   -2.728E+00                                 F               0         Blade 1 Z translation displacement, node 1, m
        121    3.687E+01                                 F               0         Blade 1 X translation displacement, node 2, m
        122   -8.980E-01                                 F               0         Blade 1 Y translation displacement, node 2, m
        123   -3.270E+00                                 F               0         Blade 1 Z translation displacement, node 2, m
        124    3.764E+01                                 F               0         Blade 1 X translation displacement, node 3, m
        125    1.353E+01                                 F               0         Blade 1 Y translation displacement, node 3, m
        126   -1.064E+01                                 F               0         Blade 1 Z translation displacement, node 3, m
        127    3.781E+01                                 F               0         Blade 1 X translation displacement, node 4, m
        128    1.661E+01                                 F               0         Blade 1 Y translation displacement, node 4, m
        129   -1.221E+01                                 F               0         Blade 1 Z translation displacement, node 4, m
        130    3.797E+01                                 F               0         Blade 1 X translation displacement, node 5, m
        131    1.968E+01                                 F               0         Blade 1 Y translation displacement, node 5, m
        132   -1.378E+01                                 F               0         Blade 1 Z translation displacement, node 5, m
        133    3.813E+01                                 F               0         Blade 1 X translation displacement, node 6, m
        134    2.276E+01                                 F               0         Blade 1 Y translation displacement, node 6, m
        135   -1.535E+01                                 F               0         Blade 1 Z translation displacement, node 6, m
        136    3.830E+01                                 F               0         Blade 1 X translation displacement, node 7, m
        137    2.583E+01                                 F               0         Blade 1 Y translation displacement, node 7, m
        138   -1.692E+01                                 F               0         Blade 1 Z translation displacement, node 7, m
        139    3.846E+01                                 F               0         Blade 1 X translation displacement, node 8, m
        140    2.891E+01                                 F               0         Blade 1 Y translation displacement, node 8, m
        141   -1.849E+01                                 F               0         Blade 1 Z translation displacement, node 8, m
        142    3.863E+01                                 F               0         Blade 1 X translation displacement, node 9, m
        143    3.198E+01                                 F               0         Blade 1 Y translation displacement, node 9, m
        144   -2.006E+01                                 F               0         Blade 1 Z translation displacement, node 9, m
        145    3.879E+01                                 F               0         Blade 1 X translation displacement, node 10, m
        146    3.506E+01                                 F               0         Blade 1 Y translation displacement, node 10, m
        147   -2.163E+01                                 F               0         Blade 1 Z translation displacement, node 10, m
        148    3.896E+01                                 F               0         Blade 1 X translation displacement, node 11, m
        149    3.813E+01                                 F               0         Blade 1 Y translation displacement, node 11, m
        150   -2.320E+01                                 F               0         Blade 1 Z translation displacement, node 11, m
        151    3.912E+01                                 F               0         Blade 1 X translation displacement, node 12, m
        152    4.121E+01                                 F               0         Blade 1 Y translation displacement, node 12, m
        153   -2.478E+01                                 F               0         Blade 1 Z translation displacement, node 12, m
        154    3.928E+01                                 F               0         Blade 1 X translation displacement, node 13, m
        155    4.428E+01                                 F               0         Blade 1 Y translation displacement, node 13, m
        156   -2.635E+01                                 F               0         Blade 1 Z translation displacement, node 13, m
        157    3.945E+01                                 F               0         Blade 1 X translation displacement, node 14, m
        158    4.736E+01                                 F               0         Blade 1 Y translation displacement, node 14, m
        159   -2.792E+01                                 F               0         Blade 1 Z translation displacement, node 14, m
        160    3.961E+01                                 F               0         Blade 1 X translation displacement, node 15, m
        161    5.043E+01                                 F               0         Blade 1 Y translation displacement, node 15, m
        162   -2.949E+01                                 F               0         Blade 1 Z translation displacement, node 15, m
        163    3.978E+01                                 F               0         Blade 1 X translation displacement, node 16, m
        164    5.351E+01                                 F               0         Blade 1 Y translation displacement, node 16, m
        165   -3.106E+01                                 F               0         Blade 1 Z translation displacement, node 16, m
        166    3.994E+01                                 F               0         Blade 1 X translation displacement, node 17, m
        167    5.658E+01                                 F               0         Blade 1 Y translation displacement, node 17, m
        168   -3.263E+01                                 F               0         Blade 1 Z translation displacement, node 17, m
        169    4.011E+01                                 F               0         Blade 1 X translation displacement, node 18, m
        170    5.966E+01                                 F               0         Blade 1 Y translation displacement, node 18, m
        171   -3.420E+01                                 F               0         Blade 1 Z translation displacement, node 18, m
        172    4.027E+01                                 F               0         Blade 1 X translation displacement, node 19, m
        173    6.273E+01                                 F               0         Blade 1 Y translation displacement, node 19, m
        174   -3.577E+01                                 F               0         Blade 1 Z translation displacement, node 19, m
        175    4.043E+01                                 F               0         Blade 1 X translation displacement, node 20, m
        176    6.581E+01                                 F               0         Blade 1 Y translation displacement, node 20, m
        177   -3.734E+01                                 F               0         Blade 1 Z translation displacement, node 20, m
        178    4.060E+01                                 F               0         Blade 1 X translation displacement, node 21, m
        179    6.888E+01                                 F               0         Blade 1 Y translation displacement, node 21, m
        180   -3.891E+01                                 F               0         Blade 1 Z translation displacement, node 21, m
        181    4.076E+01                                 F               0         Blade 1 X translation displacement, node 22, m
        182    7.196E+01                                 F               0         Blade 1 Y translation displacement, node 22, m
        183   -4.048E+01                                 F               0         Blade 1 Z translation displacement, node 22, m
        184    4.093E+01                                 F               0         Blade 1 X translation displacement, node 23, m
        185    7.503E+01                                 F               0         Blade 1 Y translation displacement, node 23, m
        186   -4.205E+01                                 F               0         Blade 1 Z translation displacement, node 23, m
        187    4.109E+01                                 F               0         Blade 1 X translation displacement, node 24, m
        188    7.811E+01                                 F               0         Blade 1 Y translation displacement, node 24, m
        189   -4.362E+01                                 F               0         Blade 1 Z translation displacement, node 24, m
        190    4.126E+01                                 F               0         Blade 1 X translation displacement, node 25, m
        191    8.118E+01                                 F               0         Blade 1 Y translation displacement, node 25, m
        192   -4.519E+01                                 F               0         Blade 1 Z translation displacement, node 25, m
        193    4.142E+01                                 F               0         Blade 1 X translation displacement, node 26, m
        194    8.426E+01                                 F               0         Blade 1 Y translation displacement, node 26, m
        195   -4.676E+01                                 F               0         Blade 1 Z translation displacement, node 26, m
        196    4.158E+01                                 F               0         Blade 1 X translation displacement, node 27, m
        197    8.733E+01                                 F               0         Blade 1 Y translation displacement, node 27, m
        198   -4.833E+01                                 F               0         Blade 1 Z translation displacement, node 27, m
        199    4.172E+01                                 F               0         Blade 1 X translation displacement, node 28, m
        200    8.994E+01                                 F               0         Blade 1 Y translation displacement, node 28, m
        201   -4.966E+01                                 F               0         Blade 1 Z translation displacement, node 28, m
        202    9.522E-01, -2.749E-01,  1.335E-01         F               0         Blade 1 X orientation angle, node 1, rad
        203    2.679E-01,  5.407E-01, -7.974E-01         F               0         Blade 1 Y orientation angle, node 1, rad
        204    1.470E-01,  7.950E-01,  5.885E-01         F               0         Blade 1 Z orientation angle, node 1, rad
        205    9.522E-01, -2.749E-01,  1.335E-01         F               0         Blade 1 X orientation angle, node 2, rad
        206    2.679E-01,  5.407E-01, -7.974E-01         F               0         Blade 1 Y orientation angle, node 2, rad
        207    1.470E-01,  7.950E-01,  5.885E-01         F               0         Blade 1 Z orientation angle, node 2, rad
        208    9.885E-01, -1.389E-01, -5.927E-02         F               0         Blade 1 X orientation angle, node 3, rad
        209    3.462E-02,  5.904E-01, -8.063E-01         F               0         Blade 1 Y orientation angle, node 3, rad
        210    1.470E-01,  7.950E-01,  5.885E-01         F               0         Blade 1 Z orientation angle, node 3, rad
        211    9.891E-01, -1.139E-01, -9.327E-02         F               0         Blade 1 X orientation angle, node 4, rad
        212   -7.152E-03,  5.958E-01, -8.031E-01         F               0         Blade 1 Y orientation angle, node 4, rad
        213    1.470E-01,  7.950E-01,  5.885E-01         F               0         Blade 1 Z orientation angle, node 4, rad
        214    9.883E-01, -9.404E-02, -1.198E-01         F               0         Blade 1 X orientation angle, node 5, rad
        215   -3.994E-02,  5.992E-01, -7.996E-01         F               0         Blade 1 Y orientation angle, node 5, rad
        216    1.470E-01,  7.950E-01,  5.885E-01         F               0         Blade 1 Z orientation angle, node 5, rad
        217    9.869E-01, -7.811E-02, -1.410E-01         F               0         Blade 1 X orientation angle, node 6, rad
        218   -6.614E-02,  6.015E-01, -7.961E-01         F               0         Blade 1 Y orientation angle, node 6, rad
        219    1.470E-01,  7.950E-01,  5.885E-01         F               0         Blade 1 Z orientation angle, node 6, rad
        220    9.852E-01, -6.497E-02, -1.583E-01         F               0         Blade 1 X orientation angle, node 7, rad
        221   -8.766E-02,  6.031E-01, -7.929E-01         F               0         Blade 1 Y orientation angle, node 7, rad
        222    1.470E-01,  7.950E-01,  5.885E-01         F               0         Blade 1 Z orientation angle, node 7, rad
        223    9.835E-01, -5.401E-02, -1.727E-01         F               0         Blade 1 X orientation angle, node 8, rad
        224   -1.055E-01,  6.042E-01, -7.899E-01         F               0         Blade 1 Y orientation angle, node 8, rad
        225    1.470E-01,  7.950E-01,  5.885E-01         F               0         Blade 1 Z orientation angle, node 8, rad
        226    9.818E-01, -4.473E-02, -1.848E-01         F               0         Blade 1 X orientation angle, node 9, rad
        227   -1.206E-01,  6.049E-01, -7.871E-01         F               0         Blade 1 Y orientation angle, node 9, rad