
Linearized model: Predictions were generated on 19-Dec-2023 at 09:27:32 using OpenFAST, compiled as a 64-bit application using single precision at commit v3.5.1
 linked with  NWTC Subroutine Library; ElastoDyn; InflowWind; AeroDyn; ServoDyn; HydroDyn; MoorDyn (v2.0.0, 2023-09-18)

Description from the FAST input file: CCT-9 Campign 4 model. Input files to be run with OpenFAST 3.5.0. GitHub branch from Lu Wang (https://github.com/luwang00/openfast/tree/dev) compiled on March 7, 2023.

Simulation information:
   Simulation time:                  1007.9500 s
   Rotor Speed:                         1.0407 rad/s
   Azimuth:                             0.8373 rad
   Wind Speed:                         12.0000 m/s
   Number of continuous states:         0
   Number of discrete states:           0
   Number of constraint states:         0
   Number of inputs:                 1746
   Number of outputs:                   4
   Jacobians included in this file?    No

Order of inputs:
     Column   Operating Point                     Rotating Frame? Derivative Order Description
   ---------- ---------------                     --------------- ---------------- -----------
          1    1.511E+01                                 F               0         Tower X translation displacement, node 1, m
          2   -9.504E-01                                 F               0         Tower Y translation displacement, node 1, m
          3   -4.132E-01                                 F               0         Tower Z translation displacement, node 1, m
          4    1.702E+01                                 F               0         Tower X translation displacement, node 2, m
          5   -1.455E+00                                 F               0         Tower Y translation displacement, node 2, m
          6   -5.718E-01                                 F               0         Tower Z translation displacement, node 2, m
          7    1.896E+01                                 F               0         Tower X translation displacement, node 3, m
          8   -1.964E+00                                 F               0         Tower Y translation displacement, node 3, m
          9   -7.361E-01                                 F               0         Tower Z translation displacement, node 3, m
         10    2.093E+01                                 F               0         Tower X translation displacement, node 4, m
         11   -2.476E+00                                 F               0         Tower Y translation displacement, node 4, m
         12   -9.047E-01                                 F               0         Tower Z translation displacement, node 4, m
         13    2.292E+01                                 F               0         Tower X translation displacement, node 5, m
         14   -2.992E+00                                 F               0         Tower Y translation displacement, node 5, m
         15   -1.077E+00                                 F               0         Tower Z translation displacement, node 5, m
         16    2.493E+01                                 F               0         Tower X translation displacement, node 6, m
         17   -3.510E+00                                 F               0         Tower Y translation displacement, node 6, m
         18   -1.252E+00                                 F               0         Tower Z translation displacement, node 6, m
         19    2.695E+01                                 F               0         Tower X translation displacement, node 7, m
         20   -4.030E+00                                 F               0         Tower Y translation displacement, node 7, m
         21   -1.430E+00                                 F               0         Tower Z translation displacement, node 7, m
         22    2.899E+01                                 F               0         Tower X translation displacement, node 8, m
         23   -4.552E+00                                 F               0         Tower Y translation displacement, node 8, m
         24   -1.610E+00                                 F               0         Tower Z translation displacement, node 8, m
         25    3.103E+01                                 F               0         Tower X translation displacement, node 9, m
         26   -5.075E+00                                 F               0         Tower Y translation displacement, node 9, m
         27   -1.791E+00                                 F               0         Tower Z translation displacement, node 9, m
         28    3.307E+01                                 F               0         Tower X translation displacement, node 10, m
         29   -5.599E+00                                 F               0         Tower Y translation displacement, node 10, m
         30   -1.973E+00                                 F               0         Tower Z translation displacement, node 10, m
         31    3.513E+01                                 F               0         Tower X translation displacement, node 11, m
         32   -6.124E+00                                 F               0         Tower Y translation displacement, node 11, m
         33   -2.155E+00                                 F               0         Tower Z translation displacement, node 11, m
         34    9.881E-01,  1.486E-02, -1.529E-01         F               0         Tower X orientation angle, node 1, rad
         35   -8.453E-03,  9.991E-01,  4.248E-02         F               0         Tower Y orientation angle, node 1, rad
         36    1.533E-01, -4.068E-02,  9.873E-01         F               0         Tower Z orientation angle, node 1, rad
         37    9.877E-01,  1.497E-02, -1.554E-01         F               0         Tower X orientation angle, node 2, rad
         38   -8.394E-03,  9.990E-01,  4.285E-02         F               0         Tower Y orientation angle, node 2, rad
         39    1.559E-01, -4.102E-02,  9.869E-01         F               0         Tower Z orientation angle, node 2, rad
         40    9.874E-01,  1.506E-02, -1.577E-01         F               0         Tower X orientation angle, node 3, rad
         41   -8.341E-03,  9.990E-01,  4.319E-02         F               0         Tower Y orientation angle, node 3, rad
         42    1.582E-01, -4.133E-02,  9.865E-01         F               0         Tower Z orientation angle, node 3, rad
         43    9.871E-01,  1.515E-02, -1.597E-01         F               0         Tower X orientation angle, node 4, rad
         44   -8.293E-03,  9.990E-01,  4.349E-02         F               0         Tower Y orientation angle, node 4, rad
         45    1.602E-01, -4.160E-02,  9.862E-01         F               0         Tower Z orientation angle, node 4, rad
         46    9.868E-01,  1.521E-02, -1.613E-01         F               0         Tower X orientation angle, node 5, rad
         47   -8.252E-03,  9.990E-01,  4.374E-02         F               0         Tower Y orientation angle, node 5, rad
         48    1.618E-01, -4.183E-02,  9.859E-01         F               0         Tower Z orientation angle, node 5, rad
         49    9.866E-01,  1.527E-02, -1.626E-01         F               0         Tower X orientation angle, node 6, rad
         50   -8.218E-03,  9.990E-01,  4.395E-02         F               0         Tower Y orientation angle, node 6, rad
         51    1.632E-01, -4.202E-02,  9.857E-01         F               0         Tower Z orientation angle, node 6, rad
         52    9.864E-01,  1.531E-02, -1.637E-01         F               0         Tower X orientation angle, node 7, rad
         53   -8.190E-03,  9.990E-01,  4.412E-02         F               0         Tower Y orientation angle, node 7, rad
         54    1.642E-01, -4.218E-02,  9.855E-01         F               0         Tower Z orientation angle, node 7, rad
         55    9.863E-01,  1.535E-02, -1.644E-01         F               0         Tower X orientation angle, node 8, rad
         56   -8.168E-03,  9.990E-01,  4.425E-02         F               0         Tower Y orientation angle, node 8, rad
         57    1.649E-01, -4.230E-02,  9.854E-01         F               0         Tower Z orientation angle, node 8, rad
         58    9.862E-01,  1.537E-02, -1.650E-01         F               0         Tower X orientation angle, node 9, rad
         59   -8.152E-03,  9.990E-01,  4.434E-02         F               0         Tower Y orientation angle, node 9, rad
         60    1.655E-01, -4.239E-02,  9.853E-01         F               0         Tower Z orientation angle, node 9, rad
         61    9.861E-01,  1.538E-02, -1.653E-01         F               0         Tower X orientation angle, node 10, rad
         62   -8.142E-03,  9.990E-01,  4.441E-02         F               0         Tower Y orientation angle, node 10, rad
         63    1.658E-01, -4.244E-02,  9.852E-01         F               0         Tower Z orientation angle, node 10, rad
         64    9.861E-01,  1.539E-02, -1.655E-01         F               0         Tower X orientation angle, node 11, rad
         65   -8.136E-03,  9.990E-01,  4.444E-02         F               0         Tower Y orientation angle, node 11, rad
         66    1.660E-01, -4.248E-02,  9.852E-01         F               0         Tower Z orientation angle, node 11, rad
         67   -5.281E-04                                 F               0         Tower X translation velocity, node 1, m/s
         68   -1.699E-02                                 F               0         Tower Y translation velocity, node 1, m/s
         69    1.409E-03                                 F               0         Tower Z translation velocity, node 1, m/s
         70   -5.942E-04                                 F               0         Tower X translation velocity, node 2, m/s
         71   -2.914E-02                                 F               0         Tower Y translation velocity, node 2, m/s
         72    9.165E-04                                 F               0         Tower Z translation velocity, node 2, m/s
         73   -7.127E-04                                 F               0         Tower X translation velocity, node 3, m/s
         74   -4.155E-02                                 F               0         Tower Y translation velocity, node 3, m/s
         75    4.174E-04                                 F               0         Tower Z translation velocity, node 3, m/s
         76   -8.677E-04                                 F               0         Tower X translation velocity, node 4, m/s
         77   -5.415E-02                                 F               0         Tower Y translation velocity, node 4, m/s
         78   -8.772E-05                                 F               0         Tower Z translation velocity, node 4, m/s
         79   -1.050E-03                                 F               0         Tower X translation velocity, node 5, m/s
         80   -6.694E-02                                 F               0         Tower Y translation velocity, node 5, m/s
         81   -5.989E-04                                 F               0         Tower Z translation velocity, node 5, m/s
         82   -1.251E-03                                 F               0         Tower X translation velocity, node 6, m/s
         83   -7.987E-02                                 F               0         Tower Y translation velocity, node 6, m/s
         84   -1.116E-03                                 F               0         Tower Z translation velocity, node 6, m/s
         85   -1.462E-03                                 F               0         Tower X translation velocity, node 7, m/s
         86   -9.291E-02                                 F               0         Tower Y translation velocity, node 7, m/s
         87   -1.638E-03                                 F               0         Tower Z translation velocity, node 7, m/s
         88   -1.681E-03                                 F               0         Tower X translation velocity, node 8, m/s
         89   -1.061E-01                                 F               0         Tower Y translation velocity, node 8, m/s
         90   -2.165E-03                                 F               0         Tower Z translation velocity, node 8, m/s
         91   -1.902E-03                                 F               0         Tower X translation velocity, node 9, m/s
         92   -1.193E-01                                 F               0         Tower Y translation velocity, node 9, m/s
         93   -2.696E-03                                 F               0         Tower Z translation velocity, node 9, m/s
         94   -2.123E-03                                 F               0         Tower X translation velocity, node 10, m/s
         95   -1.326E-01                                 F               0         Tower Y translation velocity, node 10, m/s
         96   -3.231E-03                                 F               0         Tower Z translation velocity, node 10, m/s
         97   -2.342E-03                                 F               0         Tower X translation velocity, node 11, m/s
         98   -1.459E-01                                 F               0         Tower Y translation velocity, node 11, m/s
         99   -3.768E-03                                 F               0         Tower Z translation velocity, node 11, m/s
        100    3.658E+01                                 F               0         Hub X translation displacement, node 1, m
        101   -6.624E+00                                 F               0         Hub Y translation displacement, node 1, m
        102   -4.843E-01                                 F               0         Hub Z translation displacement, node 1, m
        103    9.633E-01,  1.975E-02, -2.676E-01         F               0         Hub X orientation angle, node 1, rad
        104    1.937E-01,  6.386E-01,  7.447E-01         F               0         Hub Y orientation angle, node 1, rad
        105    1.856E-01, -7.693E-01,  6.114E-01         F               0         Hub Z orientation angle, node 1, rad
        106    1.004E+00                                 F               0         Hub X rotation velocity, node 1, rad/s
        107    2.055E-02                                 F               0         Hub Y rotation velocity, node 1, rad/s
        108   -2.787E-01                                 F               0         Hub Z rotation velocity, node 1, rad/s
        109    9.572E-01,  7.934E-04, -2.895E-01         F               0         Blade root 1 X orientation angle, node 1, rad
        110    2.222E-01,  6.389E-01,  7.365E-01         F               0         Blade root 1 Y orientation angle, node 1, rad
        111    1.856E-01, -7.693E-01,  6.114E-01         F               0         Blade root 1 Z orientation angle, node 1, rad
        112    9.610E-01,  4.898E-02, -2.721E-01         F               0         Blade root 2 X orientation angle, node 1, rad
        113    9.239E-02, -9.845E-01,  1.491E-01         F               0         Blade root 2 Y orientation angle, node 1, rad
        114   -2.606E-01, -1.685E-01, -9.506E-01         F               0         Blade root 2 Z orientation angle, node 1, rad
        115    9.706E-01,  9.449E-03, -2.407E-01         F               0         Blade root 3 X orientation angle, node 1, rad
        116   -2.289E-01,  3.473E-01, -9.094E-01         F               0         Blade root 3 Y orientation angle, node 1, rad
        117    7.500E-02,  9.377E-01,  3.392E-01         F               0         Blade root 3 Z orientation angle, node 1, rad
        118    3.703E+01                                 F               0         Blade 1 X translation displacement, node 1, m
        119   -1.089E+01                                 F               0         Blade 1 Y translation displacement, node 1, m
        120   -2.607E+00                                 F               0         Blade 1 Z translation displacement, node 1, m
        121    3.714E+01                                 F               0         Blade 1 X translation displacement, node 2, m
        122   -1.191E+01                                 F               0         Blade 1 Y translation displacement, node 2, m
        123   -3.118E+00                                 F               0         Blade 1 Z translation displacement, node 2, m
        124    3.861E+01                                 F               0         Blade 1 X translation displacement, node 3, m
        125   -2.588E+01                                 F               0         Blade 1 Y translation displacement, node 3, m
        126   -1.007E+01                                 F               0         Blade 1 Z translation displacement, node 3, m
        127    3.892E+01                                 F               0         Blade 1 X translation displacement, node 4, m
        128   -2.885E+01                                 F               0         Blade 1 Y translation displacement, node 4, m
        129   -1.155E+01                                 F               0         Blade 1 Z translation displacement, node 4, m
        130    3.923E+01                                 F               0         Blade 1 X translation displacement, node 5, m
        131   -3.183E+01                                 F               0         Blade 1 Y translation displacement, node 5, m
        132   -1.304E+01                                 F               0         Blade 1 Z translation displacement, node 5, m
        133    3.955E+01                                 F               0         Blade 1 X translation displacement, node 6, m
        134   -3.480E+01                                 F               0         Blade 1 Y translation displacement, node 6, m
        135   -1.452E+01                                 F               0         Blade 1 Z translation displacement, node 6, m
        136    3.986E+01                                 F               0         Blade 1 X translation displacement, node 7, m
        137   -3.778E+01                                 F               0         Blade 1 Y translation displacement, node 7, m
        138   -1.600E+01                                 F               0         Blade 1 Z translation displacement, node 7, m
        139    4.017E+01                                 F               0         Blade 1 X translation displacement, node 8, m
        140   -4.075E+01                                 F               0         Blade 1 Y translation displacement, node 8, m
        141   -1.748E+01                                 F               0         Blade 1 Z translation displacement, node 8, m
        142    4.049E+01                                 F               0         Blade 1 X translation displacement, node 9, m
        143   -4.373E+01                                 F               0         Blade 1 Y translation displacement, node 9, m
        144   -1.896E+01                                 F               0         Blade 1 Z translation displacement, node 9, m
        145    4.080E+01                                 F               0         Blade 1 X translation displacement, node 10, m
        146   -4.670E+01                                 F               0         Blade 1 Y translation displacement, node 10, m
        147   -2.045E+01                                 F               0         Blade 1 Z translation displacement, node 10, m
        148    4.111E+01                                 F               0         Blade 1 X translation displacement, node 11, m
        149   -4.968E+01                                 F               0         Blade 1 Y translation displacement, node 11, m
        150   -2.193E+01                                 F               0         Blade 1 Z translation displacement, node 11, m
        151    4.143E+01                                 F               0         Blade 1 X translation displacement, node 12, m
        152   -5.265E+01                                 F               0         Blade 1 Y translation displacement, node 12, m
        153   -2.341E+01                                 F               0         Blade 1 Z translation displacement, node 12, m
        154    4.174E+01                                 F               0         Blade 1 X translation displacement, node 13, m
        155   -5.563E+01                                 F               0         Blade 1 Y translation displacement, node 13, m
        156   -2.489E+01                                 F               0         Blade 1 Z translation displacement, node 13, m
        157    4.206E+01                                 F               0         Blade 1 X translation displacement, node 14, m
        158   -5.860E+01                                 F               0         Blade 1 Y translation displacement, node 14, m
        159   -2.637E+01                                 F               0         Blade 1 Z translation displacement, node 14, m
        160    4.237E+01                                 F               0         Blade 1 X translation displacement, node 15, m
        161   -6.158E+01                                 F               0         Blade 1 Y translation displacement, node 15, m
        162   -2.785E+01                                 F               0         Blade 1 Z translation displacement, node 15, m
        163    4.268E+01                                 F               0         Blade 1 X translation displacement, node 16, m
        164   -6.455E+01                                 F               0         Blade 1 Y translation displacement, node 16, m
        165   -2.934E+01                                 F               0         Blade 1 Z translation displacement, node 16, m
        166    4.300E+01                                 F               0         Blade 1 X translation displacement, node 17, m
        167   -6.753E+01                                 F               0         Blade 1 Y translation displacement, node 17, m
        168   -3.082E+01                                 F               0         Blade 1 Z translation displacement, node 17, m
        169    4.331E+01                                 F               0         Blade 1 X translation displacement, node 18, m
        170   -7.050E+01                                 F               0         Blade 1 Y translation displacement, node 18, m
        171   -3.230E+01                                 F               0         Blade 1 Z translation displacement, node 18, m
        172    4.362E+01                                 F               0         Blade 1 X translation displacement, node 19, m
        173   -7.348E+01                                 F               0         Blade 1 Y translation displacement, node 19, m
        174   -3.378E+01                                 F               0         Blade 1 Z translation displacement, node 19, m
        175    4.394E+01                                 F               0         Blade 1 X translation displacement, node 20, m
        176   -7.645E+01                                 F               0         Blade 1 Y translation displacement, node 20, m
        177   -3.526E+01                                 F               0         Blade 1 Z translation displacement, node 20, m
        178    4.425E+01                                 F               0         Blade 1 X translation displacement, node 21, m
        179   -7.943E+01                                 F               0         Blade 1 Y translation displacement, node 21, m
        180   -3.675E+01                                 F               0         Blade 1 Z translation displacement, node 21, m
        181    4.456E+01                                 F               0         Blade 1 X translation displacement, node 22, m
        182   -8.241E+01                                 F               0         Blade 1 Y translation displacement, node 22, m
        183   -3.823E+01                                 F               0         Blade 1 Z translation displacement, node 22, m
        184    4.488E+01                                 F               0         Blade 1 X translation displacement, node 23, m
        185   -8.538E+01                                 F               0         Blade 1 Y translation displacement, node 23, m
        186   -3.971E+01                                 F               0         Blade 1 Z translation displacement, node 23, m
        187    4.519E+01                                 F               0         Blade 1 X translation displacement, node 24, m
        188   -8.836E+01                                 F               0         Blade 1 Y translation displacement, node 24, m
        189   -4.119E+01                                 F               0         Blade 1 Z translation displacement, node 24, m
        190    4.550E+01                                 F               0         Blade 1 X translation displacement, node 25, m
        191   -9.133E+01                                 F               0         Blade 1 Y translation displacement, node 25, m
        192   -4.267E+01                                 F               0         Blade 1 Z translation displacement, node 25, m
        193    4.582E+01                                 F               0         Blade 1 X translation displacement, node 26, m
        194   -9.431E+01                                 F               0         Blade 1 Y translation displacement, node 26, m
        195   -4.415E+01                                 F               0         Blade 1 Z translation displacement, node 26, m
        196    4.613E+01                                 F               0         Blade 1 X translation displacement, node 27, m
        197   -9.728E+01                                 F               0         Blade 1 Y translation displacement, node 27, m
        198   -4.564E+01                                 F               0         Blade 1 Z translation displacement, node 27, m
        199    4.640E+01                                 F               0         Blade 1 X translation displacement, node 28, m
        200   -9.980E+01                                 F               0         Blade 1 Y translation displacement, node 28, m
        201   -4.689E+01                                 F               0         Blade 1 Z translation displacement, node 28, m
        202    7.505E-01, -2.907E-01, -5.935E-01         F               0         Blade 1 X orientation angle, node 1, rad
        203    6.343E-01,  5.690E-01,  5.234E-01         F               0         Blade 1 Y orientation angle, node 1, rad
        204    1.856E-01, -7.693E-01,  6.114E-01         F               0         Blade 1 Z orientation angle, node 1, rad
        205    7.505E-01, -2.907E-01, -5.935E-01         F               0         Blade 1 X orientation angle, node 2, rad
        206    6.343E-01,  5.690E-01,  5.234E-01         F               0         Blade 1 Y orientation angle, node 2, rad
        207    1.856E-01, -7.693E-01,  6.114E-01         F               0         Blade 1 Z orientation angle, node 2, rad
        208    8.795E-01, -1.475E-01, -4.525E-01         F               0         Blade 1 X orientation angle, node 3, rad
        209    4.383E-01,  6.217E-01,  6.491E-01         F               0         Blade 1 Y orientation angle, node 3, rad
        210    1.856E-01, -7.693E-01,  6.114E-01         F               0         Blade 1 Z orientation angle, node 3, rad
        211    8.972E-01, -1.211E-01, -4.247E-01         F               0         Blade 1 X orientation angle, node 4, rad
        212    4.008E-01,  6.274E-01,  6.677E-01         F               0         Blade 1 Y orientation angle, node 4, rad
        213    1.856E-01, -7.693E-01,  6.114E-01         F               0         Blade 1 Z orientation angle, node 4, rad
        214    9.100E-01, -1.003E-01, -4.024E-01         F               0         Blade 1 X orientation angle, node 5, rad
        215    3.708E-01,  6.310E-01,  6.814E-01         F               0         Blade 1 Y orientation angle, node 5, rad
        216    1.856E-01, -7.693E-01,  6.114E-01         F               0         Blade 1 Z orientation angle, node 5, rad
        217    9.195E-01, -8.350E-02, -3.841E-01         F               0         Blade 1 X orientation angle, node 6, rad
        218    3.466E-01,  6.335E-01,  6.918E-01         F               0         Blade 1 Y orientation angle, node 6, rad
        219    1.856E-01, -7.693E-01,  6.114E-01         F               0         Blade 1 Z orientation angle, node 6, rad
        220    9.268E-01, -6.966E-02, -3.690E-01         F               0         Blade 1 X orientation angle, node 7, rad
        221    3.264E-01,  6.351E-01,  7.000E-01         F               0         Blade 1 Y orientation angle, node 7, rad
        222    1.856E-01, -7.693E-01,  6.114E-01         F               0         Blade 1 Z orientation angle, node 7, rad
        223    9.326E-01, -5.812E-02, -3.562E-01         F               0         Blade 1 X orientation angle, node 8, rad
        224    3.095E-01,  6.363E-01,  7.066E-01         F               0         Blade 1 Y orientation angle, node 8, rad
        225    1.856E-01, -7.693E-01,  6.114E-01         F               0         Blade 1 Z orientation angle, node 8, rad
        226    9.372E-01, -4.834E-02, -3.453E-01         F               0         Blade 1 X orientation angle, node 9, rad
        227    2.952E-01,  6.371E-01,  7.120E-01         F               0         Blade 1 Y orientation angle, node 9, rad