
Linearized model: Predictions were generated on 19-Dec-2023 at 09:27:32 using OpenFAST, compiled as a 64-bit application using single precision at commit v3.5.1
 linked with  NWTC Subroutine Library; ElastoDyn; InflowWind; AeroDyn; ServoDyn; HydroDyn; MoorDyn (v2.0.0, 2023-09-18)

Description from the FAST input file: CCT-9 Campign 4 model. Input files to be run with OpenFAST 3.5.0. GitHub branch from Lu Wang (https://github.com/luwang00/openfast/tree/dev) compiled on March 7, 2023.

Simulation information:
   Simulation time:                  1007.7000 s
   Rotor Speed:                         1.0407 rad/s
   Azimuth:                             0.5771 rad
   Wind Speed:                         12.0000 m/s
   Number of continuous states:         0
   Number of discrete states:           0
   Number of constraint states:         0
   Number of inputs:                 1746
   Number of outputs:                   4
   Jacobians included in this file?    No

Order of inputs:
     Column   Operating Point                     Rotating Frame? Derivative Order Description
   ---------- ---------------                     --------------- ---------------- -----------
          1    1.511E+01                                 F               0         Tower X translation displacement, node 1, m
          2   -9.462E-01                                 F               0         Tower Y translation displacement, node 1, m
          3   -4.136E-01                                 F               0         Tower Z translation displacement, node 1, m
          4    1.702E+01                                 F               0         Tower X translation displacement, node 2, m
          5   -1.448E+00                                 F               0         Tower Y translation displacement, node 2, m
          6   -5.721E-01                                 F               0         Tower Z translation displacement, node 2, m
          7    1.896E+01                                 F               0         Tower X translation displacement, node 3, m
          8   -1.954E+00                                 F               0         Tower Y translation displacement, node 3, m
          9   -7.362E-01                                 F               0         Tower Z translation displacement, node 3, m
         10    2.093E+01                                 F               0         Tower X translation displacement, node 4, m
         11   -2.463E+00                                 F               0         Tower Y translation displacement, node 4, m
         12   -9.047E-01                                 F               0         Tower Z translation displacement, node 4, m
         13    2.292E+01                                 F               0         Tower X translation displacement, node 5, m
         14   -2.975E+00                                 F               0         Tower Y translation displacement, node 5, m
         15   -1.077E+00                                 F               0         Tower Z translation displacement, node 5, m
         16    2.493E+01                                 F               0         Tower X translation displacement, node 6, m
         17   -3.490E+00                                 F               0         Tower Y translation displacement, node 6, m
         18   -1.252E+00                                 F               0         Tower Z translation displacement, node 6, m
         19    2.695E+01                                 F               0         Tower X translation displacement, node 7, m
         20   -4.007E+00                                 F               0         Tower Y translation displacement, node 7, m
         21   -1.430E+00                                 F               0         Tower Z translation displacement, node 7, m
         22    2.899E+01                                 F               0         Tower X translation displacement, node 8, m
         23   -4.526E+00                                 F               0         Tower Y translation displacement, node 8, m
         24   -1.609E+00                                 F               0         Tower Z translation displacement, node 8, m
         25    3.103E+01                                 F               0         Tower X translation displacement, node 9, m
         26   -5.046E+00                                 F               0         Tower Y translation displacement, node 9, m
         27   -1.790E+00                                 F               0         Tower Z translation displacement, node 9, m
         28    3.308E+01                                 F               0         Tower X translation displacement, node 10, m
         29   -5.567E+00                                 F               0         Tower Y translation displacement, node 10, m
         30   -1.972E+00                                 F               0         Tower Z translation displacement, node 10, m
         31    3.513E+01                                 F               0         Tower X translation displacement, node 11, m
         32   -6.088E+00                                 F               0         Tower Y translation displacement, node 11, m
         33   -2.155E+00                                 F               0         Tower Z translation displacement, node 11, m
         34    9.881E-01,  1.491E-02, -1.529E-01         F               0         Tower X orientation angle, node 1, rad
         35   -8.540E-03,  9.991E-01,  4.225E-02         F               0         Tower Y orientation angle, node 1, rad
         36    1.533E-01, -4.044E-02,  9.873E-01         F               0         Tower Z orientation angle, node 1, rad
         37    9.877E-01,  1.502E-02, -1.554E-01         F               0         Tower X orientation angle, node 2, rad
         38   -8.482E-03,  9.991E-01,  4.262E-02         F               0         Tower Y orientation angle, node 2, rad
         39    1.559E-01, -4.078E-02,  9.869E-01         F               0         Tower Z orientation angle, node 2, rad
         40    9.874E-01,  1.511E-02, -1.577E-01         F               0         Tower X orientation angle, node 3, rad
         41   -8.429E-03,  9.990E-01,  4.295E-02         F               0         Tower Y orientation angle, node 3, rad
         42    1.582E-01, -4.108E-02,  9.865E-01         F               0         Tower Z orientation angle, node 3, rad
         43    9.871E-01,  1.519E-02, -1.597E-01         F               0         Tower X orientation angle, node 4, rad
         44   -8.382E-03,  9.990E-01,  4.324E-02         F               0         Tower Y orientation angle, node 4, rad
         45    1.602E-01, -4.135E-02,  9.862E-01         F               0         Tower Z orientation angle, node 4, rad
         46    9.868E-01,  1.526E-02, -1.613E-01         F               0         Tower X orientation angle, node 5, rad
         47   -8.342E-03,  9.990E-01,  4.349E-02         F               0         Tower Y orientation angle, node 5, rad
         48    1.618E-01, -4.157E-02,  9.859E-01         F               0         Tower Z orientation angle, node 5, rad
         49    9.866E-01,  1.532E-02, -1.626E-01         F               0         Tower X orientation angle, node 6, rad
         50   -8.308E-03,  9.990E-01,  4.370E-02         F               0         Tower Y orientation angle, node 6, rad
         51    1.632E-01, -4.176E-02,  9.857E-01         F               0         Tower Z orientation angle, node 6, rad
         52    9.864E-01,  1.536E-02, -1.637E-01         F               0         Tower X orientation angle, node 7, rad
         53   -8.280E-03,  9.990E-01,  4.387E-02         F               0         Tower Y orientation angle, node 7, rad
         54    1.642E-01, -4.192E-02,  9.855E-01         F               0         Tower Z orientation angle, node 7, rad
         55    9.863E-01,  1.540E-02, -1.644E-01         F               0         Tower X orientation angle, node 8, rad
         56   -8.258E-03,  9.990E-01,  4.400E-02         F               0         Tower Y orientation angle, node 8, rad
         57    1.649E-01, -4.204E-02,  9.854E-01         F               0         Tower Z orientation angle, node 8, rad
         58    9.862E-01,  1.542E-02, -1.650E-01         F               0         Tower X orientation angle, node 9, rad
         59   -8.243E-03,  9.990E-01,  4.409E-02         F               0         Tower Y orientation angle, node 9, rad
         60    1.655E-01, -4.212E-02,  9.853E-01         F               0         Tower Z orientation angle, node 9, rad
         61    9.861E-01,  1.543E-02, -1.653E-01         F               0         Tower X orientation angle, node 10, rad
         62   -8.232E-03,  9.990E-01,  4.415E-02         F               0         Tower Y orientation angle, node 10, rad
         63    1.658E-01, -4.218E-02,  9.853E-01         F               0         Tower Z orientation angle, node 10, rad
         64    9.861E-01,  1.544E-02, -1.655E-01         F               0         Tower X orientation angle, node 11, rad
         65   -8.227E-03,  9.990E-01,  4.419E-02         F               0         Tower Y orientation angle, node 11, rad
         66    1.660E-01, -4.221E-02,  9.852E-01         F               0         Tower Z orientation angle, node 11, rad
         67   -7.285E-04                                 F               0         Tower X translation velocity, node 1, m/s
         68   -1.718E-02                                 F               0         Tower Y translation velocity, node 1, m/s
         69    1.729E-03                                 F               0         Tower Z translation velocity, node 1, m/s
         70   -8.264E-04                                 F               0         Tower X translation velocity, node 2, m/s
         71   -2.942E-02                                 F               0         Tower Y translation velocity, node 2, m/s
         72    1.241E-03                                 F               0         Tower Z translation velocity, node 2, m/s
         73   -9.256E-04                                 F               0         Tower X translation velocity, node 3, m/s
         74   -4.192E-02                                 F               0         Tower Y translation velocity, node 3, m/s
         75    7.385E-04                                 F               0         Tower Z translation velocity, node 3, m/s
         76   -1.024E-03                                 F               0         Tower X translation velocity, node 4, m/s
         77   -5.461E-02                                 F               0         Tower Y translation velocity, node 4, m/s
         78    2.240E-04                                 F               0         Tower Z translation velocity, node 4, m/s
         79   -1.122E-03                                 F               0         Tower X translation velocity, node 5, m/s
         80   -6.747E-02                                 F               0         Tower Y translation velocity, node 5, m/s
         81   -3.012E-04                                 F               0         Tower Z translation velocity, node 5, m/s
         82   -1.217E-03                                 F               0         Tower X translation velocity, node 6, m/s
         83   -8.049E-02                                 F               0         Tower Y translation velocity, node 6, m/s
         84   -8.356E-04                                 F               0         Tower Z translation velocity, node 6, m/s
         85   -1.310E-03                                 F               0         Tower X translation velocity, node 7, m/s
         86   -9.361E-02                                 F               0         Tower Y translation velocity, node 7, m/s
         87   -1.377E-03                                 F               0         Tower Z translation velocity, node 7, m/s
         88   -1.399E-03                                 F               0         Tower X translation velocity, node 8, m/s
         89   -1.068E-01                                 F               0         Tower Y translation velocity, node 8, m/s
         90   -1.926E-03                                 F               0         Tower Z translation velocity, node 8, m/s
         91   -1.486E-03                                 F               0         Tower X translation velocity, node 9, m/s
         92   -1.201E-01                                 F               0         Tower Y translation velocity, node 9, m/s
         93   -2.479E-03                                 F               0         Tower Z translation velocity, node 9, m/s
         94   -1.570E-03                                 F               0         Tower X translation velocity, node 10, m/s
         95   -1.335E-01                                 F               0         Tower Y translation velocity, node 10, m/s
         96   -3.037E-03                                 F               0         Tower Z translation velocity, node 10, m/s
         97   -1.652E-03                                 F               0         Tower X translation velocity, node 11, m/s
         98   -1.469E-01                                 F               0         Tower Y translation velocity, node 11, m/s
         99   -3.596E-03                                 F               0         Tower Z translation velocity, node 11, m/s
        100    3.658E+01                                 F               0         Hub X translation displacement, node 1, m
        101   -6.586E+00                                 F               0         Hub Y translation displacement, node 1, m
        102   -4.833E-01                                 F               0         Hub Z translation displacement, node 1, m
        103    9.633E-01,  1.977E-02, -2.676E-01         F               0         Hub X orientation angle, node 1, rad
        104    1.394E-01,  8.152E-01,  5.622E-01         F               0         Hub Y orientation angle, node 1, rad
        105    2.292E-01, -5.788E-01,  7.826E-01         F               0         Hub Z orientation angle, node 1, rad
        106    1.004E+00                                 F               0         Hub X rotation velocity, node 1, rad/s
        107    2.058E-02                                 F               0         Hub Y rotation velocity, node 1, rad/s
        108   -2.788E-01                                 F               0         Hub Z rotation velocity, node 1, rad/s
        109    9.588E-01, -4.425E-03, -2.841E-01         F               0         Blade root 1 X orientation angle, node 1, rad
        110    1.679E-01,  8.154E-01,  5.540E-01         F               0         Blade root 1 Y orientation angle, node 1, rad
        111    2.292E-01, -5.788E-01,  7.826E-01         F               0         Blade root 1 Z orientation angle, node 1, rad
        112    9.591E-01,  4.672E-02, -2.792E-01         F               0         Blade root 2 X orientation angle, node 1, rad
        113    1.573E-01, -9.079E-01,  3.885E-01         F               0         Blade root 2 Y orientation angle, node 1, rad
        114   -2.353E-01, -4.166E-01, -8.781E-01         F               0         Blade root 2 Z orientation angle, node 1, rad
        115    9.709E-01,  1.698E-02, -2.390E-01         F               0         Blade root 3 X orientation angle, node 1, rad
        116   -2.395E-01,  9.424E-02, -9.663E-01         F               0         Blade root 3 Y orientation angle, node 1, rad
        117    6.116E-03,  9.954E-01,  9.556E-02         F               0         Blade root 3 Z orientation angle, node 1, rad
        118    3.727E+01                                 F               0         Blade 1 X translation displacement, node 1, m
        119   -9.793E+00                                 F               0         Blade 1 Y translation displacement, node 1, m
        120   -1.658E+00                                 F               0         Blade 1 Z translation displacement, node 1, m
        121    3.744E+01                                 F               0         Blade 1 X translation displacement, node 2, m
        122   -1.057E+01                                 F               0         Blade 1 Y translation displacement, node 2, m
        123   -1.941E+00                                 F               0         Blade 1 Z translation displacement, node 2, m
        124    3.970E+01                                 F               0         Blade 1 X translation displacement, node 3, m
        125   -2.107E+01                                 F               0         Blade 1 Y translation displacement, node 3, m
        126   -5.788E+00                                 F               0         Blade 1 Z translation displacement, node 3, m
        127    4.018E+01                                 F               0         Blade 1 X translation displacement, node 4, m
        128   -2.331E+01                                 F               0         Blade 1 Y translation displacement, node 4, m
        129   -6.608E+00                                 F               0         Blade 1 Z translation displacement, node 4, m
        130    4.066E+01                                 F               0         Blade 1 X translation displacement, node 5, m
        131   -2.555E+01                                 F               0         Blade 1 Y translation displacement, node 5, m
        132   -7.428E+00                                 F               0         Blade 1 Z translation displacement, node 5, m
        133    4.115E+01                                 F               0         Blade 1 X translation displacement, node 6, m
        134   -2.779E+01                                 F               0         Blade 1 Y translation displacement, node 6, m
        135   -8.248E+00                                 F               0         Blade 1 Z translation displacement, node 6, m
        136    4.163E+01                                 F               0         Blade 1 X translation displacement, node 7, m
        137   -3.003E+01                                 F               0         Blade 1 Y translation displacement, node 7, m
        138   -9.068E+00                                 F               0         Blade 1 Z translation displacement, node 7, m
        139    4.211E+01                                 F               0         Blade 1 X translation displacement, node 8, m
        140   -3.227E+01                                 F               0         Blade 1 Y translation displacement, node 8, m
        141   -9.887E+00                                 F               0         Blade 1 Z translation displacement, node 8, m
        142    4.259E+01                                 F               0         Blade 1 X translation displacement, node 9, m
        143   -3.451E+01                                 F               0         Blade 1 Y translation displacement, node 9, m
        144   -1.071E+01                                 F               0         Blade 1 Z translation displacement, node 9, m
        145    4.308E+01                                 F               0         Blade 1 X translation displacement, node 10, m
        146   -3.674E+01                                 F               0         Blade 1 Y translation displacement, node 10, m
        147   -1.153E+01                                 F               0         Blade 1 Z translation displacement, node 10, m
        148    4.356E+01                                 F               0         Blade 1 X translation displacement, node 11, m
        149   -3.898E+01                                 F               0         Blade 1 Y translation displacement, node 11, m
        150   -1.235E+01                                 F               0         Blade 1 Z translation displacement, node 11, m
        151    4.404E+01                                 F               0         Blade 1 X translation displacement, node 12, m
        152   -4.122E+01                                 F               0         Blade 1 Y translation displacement, node 12, m
        153   -1.317E+01                                 F               0         Blade 1 Z translation displacement, node 12, m
        154    4.452E+01                                 F               0         Blade 1 X translation displacement, node 13, m
        155   -4.346E+01                                 F               0         Blade 1 Y translation displacement, node 13, m
        156   -1.399E+01                                 F               0         Blade 1 Z translation displacement, node 13, m
        157    4.500E+01                                 F               0         Blade 1 X translation displacement, node 14, m
        158   -4.570E+01                                 F               0         Blade 1 Y translation displacement, node 14, m
        159   -1.481E+01                                 F               0         Blade 1 Z translation displacement, node 14, m
        160    4.549E+01                                 F               0         Blade 1 X translation displacement, node 15, m
        161   -4.794E+01                                 F               0         Blade 1 Y translation displacement, node 15, m
        162   -1.563E+01                                 F               0         Blade 1 Z translation displacement, node 15, m
        163    4.597E+01                                 F               0         Blade 1 X translation displacement, node 16, m
        164   -5.018E+01                                 F               0         Blade 1 Y translation displacement, node 16, m
        165   -1.645E+01                                 F               0         Blade 1 Z translation displacement, node 16, m
        166    4.645E+01                                 F               0         Blade 1 X translation displacement, node 17, m
        167   -5.242E+01                                 F               0         Blade 1 Y translation displacement, node 17, m
        168   -1.727E+01                                 F               0         Blade 1 Z translation displacement, node 17, m
        169    4.693E+01                                 F               0         Blade 1 X translation displacement, node 18, m
        170   -5.466E+01                                 F               0         Blade 1 Y translation displacement, node 18, m
        171   -1.809E+01                                 F               0         Blade 1 Z translation displacement, node 18, m
        172    4.742E+01                                 F               0         Blade 1 X translation displacement, node 19, m
        173   -5.689E+01                                 F               0         Blade 1 Y translation displacement, node 19, m
        174   -1.891E+01                                 F               0         Blade 1 Z translation displacement, node 19, m
        175    4.790E+01                                 F               0         Blade 1 X translation displacement, node 20, m
        176   -5.913E+01                                 F               0         Blade 1 Y translation displacement, node 20, m
        177   -1.973E+01                                 F               0         Blade 1 Z translation displacement, node 20, m
        178    4.838E+01                                 F               0         Blade 1 X translation displacement, node 21, m
        179   -6.137E+01                                 F               0         Blade 1 Y translation displacement, node 21, m
        180   -2.055E+01                                 F               0         Blade 1 Z translation displacement, node 21, m
        181    4.886E+01                                 F               0         Blade 1 X translation displacement, node 22, m
        182   -6.361E+01                                 F               0         Blade 1 Y translation displacement, node 22, m
        183   -2.137E+01                                 F               0         Blade 1 Z translation displacement, node 22, m
        184    4.935E+01                                 F               0         Blade 1 X translation displacement, node 23, m
        185   -6.585E+01                                 F               0         Blade 1 Y translation displacement, node 23, m
        186   -2.218E+01                                 F               0         Blade 1 Z translation displacement, node 23, m
        187    4.983E+01                                 F               0         Blade 1 X translation displacement, node 24, m
        188   -6.809E+01                                 F               0         Blade 1 Y translation displacement, node 24, m
        189   -2.300E+01                                 F               0         Blade 1 Z translation displacement, node 24, m
        190    5.031E+01                                 F               0         Blade 1 X translation displacement, node 25, m
        191   -7.033E+01                                 F               0         Blade 1 Y translation displacement, node 25, m
        192   -2.382E+01                                 F               0         Blade 1 Z translation displacement, node 25, m
        193    5.079E+01                                 F               0         Blade 1 X translation displacement, node 26, m
        194   -7.257E+01                                 F               0         Blade 1 Y translation displacement, node 26, m
        195   -2.464E+01                                 F               0         Blade 1 Z translation displacement, node 26, m
        196    5.127E+01                                 F               0         Blade 1 X translation displacement, node 27, m
        197   -7.480E+01                                 F               0         Blade 1 Y translation displacement, node 27, m
        198   -2.546E+01                                 F               0         Blade 1 Z translation displacement, node 27, m
        199    5.168E+01                                 F               0         Blade 1 X translation displacement, node 28, m
        200   -7.670E+01                                 F               0         Blade 1 Y translation displacement, node 28, m
        201   -2.616E+01                                 F               0         Blade 1 Z translation displacement, node 28, m
        202    7.767E-01, -3.758E-01, -5.055E-01         F               0         Blade 1 X orientation angle, node 1, rad
        203    5.867E-01,  7.237E-01,  3.635E-01         F               0         Blade 1 Y orientation angle, node 1, rad
        204    2.292E-01, -5.788E-01,  7.826E-01         F               0         Blade 1 Z orientation angle, node 1, rad
        205    7.767E-01, -3.758E-01, -5.055E-01         F               0         Blade 1 X orientation angle, node 2, rad
        206    5.867E-01,  7.237E-01,  3.635E-01         F               0         Blade 1 Y orientation angle, node 2, rad
        207    2.292E-01, -5.788E-01,  7.826E-01         F               0         Blade 1 Z orientation angle, node 2, rad
        208    8.936E-01, -1.936E-01, -4.049E-01         F               0         Blade 1 X orientation angle, node 3, rad
        209    3.859E-01,  7.921E-01,  4.729E-01         F               0         Blade 1 Y orientation angle, node 3, rad
        210    2.292E-01, -5.788E-01,  7.826E-01         F               0         Blade 1 Z orientation angle, node 3, rad
        211    9.091E-01, -1.599E-01, -3.846E-01         F               0         Blade 1 X orientation angle, node 4, rad
        212    3.478E-01,  7.996E-01,  4.896E-01         F               0         Blade 1 Y orientation angle, node 4, rad
        213    2.292E-01, -5.788E-01,  7.826E-01         F               0         Blade 1 Z orientation angle, node 4, rad
        214    9.202E-01, -1.333E-01, -3.682E-01         F               0         Blade 1 X orientation angle, node 5, rad
        215    3.174E-01,  8.045E-01,  5.021E-01         F               0         Blade 1 Y orientation angle, node 5, rad
        216    2.292E-01, -5.788E-01,  7.826E-01         F               0         Blade 1 Z orientation angle, node 5, rad
        217    9.282E-01, -1.119E-01, -3.547E-01         F               0         Blade 1 X orientation angle, node 6, rad
        218    2.929E-01,  8.077E-01,  5.117E-01         F               0         Blade 1 Y orientation angle, node 6, rad
        219    2.292E-01, -5.788E-01,  7.826E-01         F               0         Blade 1 Z orientation angle, node 6, rad
        220    9.344E-01, -9.430E-02, -3.435E-01         F               0         Blade 1 X orientation angle, node 7, rad
        221    2.726E-01,  8.100E-01,  5.193E-01         F               0         Blade 1 Y orientation angle, node 7, rad
        222    2.292E-01, -5.788E-01,  7.826E-01         F               0         Blade 1 Z orientation angle, node 7, rad
        223    9.392E-01, -7.959E-02, -3.340E-01         F               0         Blade 1 X orientation angle, node 8, rad
        224    2.556E-01,  8.115E-01,  5.254E-01         F               0         Blade 1 Y orientation angle, node 8, rad
        225    2.292E-01, -5.788E-01,  7.826E-01         F               0         Blade 1 Z orientation angle, node 8, rad
        226    9.430E-01, -6.711E-02, -3.259E-01         F               0         Blade 1 X orientation angle, node 9, rad
        227    2.412E-01,  8.127E-01,  5.305E-01         F               0         Blade 1 Y orientation angle, node 9, rad