
Linearized model: Predictions were generated on 19-Dec-2023 at 09:27:32 using OpenFAST, compiled as a 64-bit application using single precision at commit v3.5.1
 linked with  NWTC Subroutine Library; ElastoDyn; InflowWind; AeroDyn; ServoDyn; HydroDyn; MoorDyn (v2.0.0, 2023-09-18)

Description from the FAST input file: CCT-9 Campign 4 model. Input files to be run with OpenFAST 3.5.0. GitHub branch from Lu Wang (https://github.com/luwang00/openfast/tree/dev) compiled on March 7, 2023.

Simulation information:
   Simulation time:                  1007.4750 s
   Rotor Speed:                         1.0407 rad/s
   Azimuth:                             0.3429 rad
   Wind Speed:                         12.0000 m/s
   Number of continuous states:        22
   Number of discrete states:           0
   Number of constraint states:         0
   Number of inputs:                 1890
   Number of outputs:                  38
   Jacobians included in this file?    No

Order of continuous states:
   Row/Column Operating Point                     Rotating Frame? Derivative Order Description
   ---------- ---------------                     --------------- ---------------- -----------
          1    1.230E+01                                 F               2         Platform horizontal surge translation DOF (internal DOF index = DOF_Sg), m
          2   -2.046E-01                                 F               2         Platform horizontal sway translation DOF (internal DOF index = DOF_Sw), m
          3   -1.821E-01                                 F               2         Platform vertical heave translation DOF (internal DOF index = DOF_Hv), m
          4    4.167E-02                                 F               2         Platform roll tilt rotation DOF (internal DOF index = DOF_R), rad
          5    1.551E-01                                 F               2         Platform pitch tilt rotation DOF (internal DOF index = DOF_P), rad
          6    1.194E-02                                 F               2         Platform yaw rotation DOF (internal DOF index = DOF_Y), rad
          7    1.078E+00                                 F               2         1st tower fore-aft bending mode DOF (internal DOF index = DOF_TFA1), m
          8    1.595E-01                                 F               2         1st tower side-to-side bending mode DOF (internal DOF index = DOF_TSS1), m
          9    1.605E-03                                 F               2         2nd tower fore-aft bending mode DOF (internal DOF index = DOF_TFA2), m
         10    7.323E-05                                 F               2         2nd tower side-to-side bending mode DOF (internal DOF index = DOF_TSS2), m
         11    5.055E+00                                 F               2         Variable speed generator DOF (internal DOF index = DOF_GeAz), rad
         12   -6.975E-04                                 F               2         First time derivative of Platform horizontal surge translation DOF (internal DOF index = DOF_Sg), m/s
         13    7.439E-04                                 F               2         First time derivative of Platform horizontal sway translation DOF (internal DOF index = DOF_Sw), m/s
         14    2.718E-03                                 F               2         First time derivative of Platform vertical heave translation DOF (internal DOF index = DOF_Hv), m/s
         15    9.577E-04                                 F               2         First time derivative of Platform roll tilt rotation DOF (internal DOF index = DOF_R), rad/s
         16   -3.345E-07                                 F               2         First time derivative of Platform pitch tilt rotation DOF (internal DOF index = DOF_P), rad/s
         17   -2.891E-04                                 F               2         First time derivative of Platform yaw rotation DOF (internal DOF index = DOF_Y), rad/s
         18    1.486E-03                                 F               2         First time derivative of 1st tower fore-aft bending mode DOF (internal DOF index = DOF_TFA1), m/s
         19    7.741E-03                                 F               2         First time derivative of 1st tower side-to-side bending mode DOF (internal DOF index = DOF_TSS1), m/s
         20    4.244E-06                                 F               2         First time derivative of 2nd tower fore-aft bending mode DOF (internal DOF index = DOF_TFA2), m/s
         21    1.682E-06                                 F               2         First time derivative of 2nd tower side-to-side bending mode DOF (internal DOF index = DOF_TSS2), m/s
         22    1.041E+00                                 F               2         First time derivative of Variable speed generator DOF (internal DOF index = DOF_GeAz), rad/s

Order of continuous state derivatives:
   Row/Column Operating Point                     Rotating Frame? Derivative Order Description
   ---------- ---------------                     --------------- ---------------- -----------
          1   -6.975E-04                                 F               2         First time derivative of Platform horizontal surge translation DOF (internal DOF index = DOF_Sg), m/s
          2    7.439E-04                                 F               2         First time derivative of Platform horizontal sway translation DOF (internal DOF index = DOF_Sw), m/s
          3    2.718E-03                                 F               2         First time derivative of Platform vertical heave translation DOF (internal DOF index = DOF_Hv), m/s
          4    9.577E-04                                 F               2         First time derivative of Platform roll tilt rotation DOF (internal DOF index = DOF_R), rad/s
          5   -3.345E-07                                 F               2         First time derivative of Platform pitch tilt rotation DOF (internal DOF index = DOF_P), rad/s
          6   -2.891E-04                                 F               2         First time derivative of Platform yaw rotation DOF (internal DOF index = DOF_Y), rad/s
          7    1.486E-03                                 F               2         First time derivative of 1st tower fore-aft bending mode DOF (internal DOF index = DOF_TFA1), m/s
          8    7.741E-03                                 F               2         First time derivative of 1st tower side-to-side bending mode DOF (internal DOF index = DOF_TSS1), m/s
          9    4.244E-06                                 F               2         First time derivative of 2nd tower fore-aft bending mode DOF (internal DOF index = DOF_TFA2), m/s
         10    1.682E-06                                 F               2         First time derivative of 2nd tower side-to-side bending mode DOF (internal DOF index = DOF_TSS2), m/s
         11    1.041E+00                                 F               2         First time derivative of Variable speed generator DOF (internal DOF index = DOF_GeAz), rad/s
         12    4.362E-04                                 F               2         First time derivative of First time derivative of Platform horizontal surge translation DOF (internal DOF index = DOF_Sg), m/s/s
         13    5.419E-04                                 F               2         First time derivative of First time derivative of Platform horizontal sway translation DOF (internal DOF index = DOF_Sw), m/s/s
         14   -1.199E-03                                 F               2         First time derivative of First time derivative of Platform vertical heave translation DOF (internal DOF index = DOF_Hv), m/s/s
         15   -2.741E-05                                 F               2         First time derivative of First time derivative of Platform roll tilt rotation DOF (internal DOF index = DOF_R), rad/s/s
         16    1.427E-05                                 F               2         First time derivative of First time derivative of Platform pitch tilt rotation DOF (internal DOF index = DOF_P), rad/s/s
         17    3.002E-05                                 F               2         First time derivative of First time derivative of Platform yaw rotation DOF (internal DOF index = DOF_Y), rad/s/s
         18   -5.788E-03                                 F               2         First time derivative of First time derivative of 1st tower fore-aft bending mode DOF (internal DOF index = DOF_TFA1), m/s/s
         19    2.344E-03                                 F               2         First time derivative of First time derivative of 1st tower side-to-side bending mode DOF (internal DOF index = DOF_TSS1), m/s/s
         20   -1.878E-05                                 F               2         First time derivative of First time derivative of 2nd tower fore-aft bending mode DOF (internal DOF index = DOF_TFA2), m/s/s
         21   -2.040E-06                                 F               2         First time derivative of First time derivative of 2nd tower side-to-side bending mode DOF (internal DOF index = DOF_TSS2), m/s/s
         22   -6.874E-05                                 F               2         First time derivative of First time derivative of Variable speed generator DOF (internal DOF index = DOF_GeAz), rad/s/s

Order of inputs:
     Column   Operating Point                     Rotating Frame? Derivative Order Description
   ---------- ---------------                     --------------- ---------------- -----------
          1    1.138E+02                                 F               0         Blade 1 X force, node 1, N
          2    1.347E+02                                 F               0         Blade 1 Y force, node 1, N
          3    2.387E+01                                 F               0         Blade 1 Z force, node 1, N
          4    4.486E+02                                 F               0         Blade 1 X force, node 2, N
          5    2.496E+02                                 F               0         Blade 1 Y force, node 2, N
          6   -2.385E+01                                 F               0         Blade 1 Z force, node 2, N
          7    5.528E+02                                 F               0         Blade 1 X force, node 3, N
          8    1.748E+02                                 F               0         Blade 1 Y force, node 3, N
          9   -8.504E+01                                 F               0         Blade 1 Z force, node 3, N
         10    7.050E+02                                 F               0         Blade 1 X force, node 4, N
         11    1.314E+02                                 F               0         Blade 1 Y force, node 4, N
         12   -1.468E+02                                 F               0         Blade 1 Z force, node 4, N
         13    8.572E+02                                 F               0         Blade 1 X force, node 5, N
         14    8.803E+01                                 F               0         Blade 1 Y force, node 5, N
         15   -2.086E+02                                 F               0         Blade 1 Z force, node 5, N
         16    1.009E+03                                 F               0         Blade 1 X force, node 6, N
         17    4.464E+01                                 F               0         Blade 1 Y force, node 6, N
         18   -2.703E+02                                 F               0         Blade 1 Z force, node 6, N
         19    1.161E+03                                 F               0         Blade 1 X force, node 7, N
         20    1.243E+00                                 F               0         Blade 1 Y force, node 7, N
         21   -3.321E+02                                 F               0         Blade 1 Z force, node 7, N
         22    1.314E+03                                 F               0         Blade 1 X force, node 8, N
         23   -4.215E+01                                 F               0         Blade 1 Y force, node 8, N
         24   -3.938E+02                                 F               0         Blade 1 Z force, node 8, N
         25    1.466E+03                                 F               0         Blade 1 X force, node 9, N
         26   -8.555E+01                                 F               0         Blade 1 Y force, node 9, N
         27   -4.556E+02                                 F               0         Blade 1 Z force, node 9, N
         28    1.618E+03                                 F               0         Blade 1 X force, node 10, N
         29   -1.289E+02                                 F               0         Blade 1 Y force, node 10, N
         30   -5.173E+02                                 F               0         Blade 1 Z force, node 10, N
         31    1.770E+03                                 F               0         Blade 1 X force, node 11, N
         32   -1.723E+02                                 F               0         Blade 1 Y force, node 11, N
         33   -5.791E+02                                 F               0         Blade 1 Z force, node 11, N
         34    1.922E+03                                 F               0         Blade 1 X force, node 12, N
         35   -2.157E+02                                 F               0         Blade 1 Y force, node 12, N
         36   -6.409E+02                                 F               0         Blade 1 Z force, node 12, N
         37    2.074E+03                                 F               0         Blade 1 X force, node 13, N
         38   -2.591E+02                                 F               0         Blade 1 Y force, node 13, N
         39   -7.026E+02                                 F               0         Blade 1 Z force, node 13, N
         40    2.227E+03                                 F               0         Blade 1 X force, node 14, N
         41   -3.025E+02                                 F               0         Blade 1 Y force, node 14, N
         42   -7.644E+02                                 F               0         Blade 1 Z force, node 14, N
         43    2.379E+03                                 F               0         Blade 1 X force, node 15, N
         44   -3.459E+02                                 F               0         Blade 1 Y force, node 15, N
         45   -8.261E+02                                 F               0         Blade 1 Z force, node 15, N
         46    2.531E+03                                 F               0         Blade 1 X force, node 16, N
         47   -3.893E+02                                 F               0         Blade 1 Y force, node 16, N
         48   -8.879E+02                                 F               0         Blade 1 Z force, node 16, N
         49    3.114E+03                                 F               0         Blade 1 X force, node 17, N
         50   -4.994E+02                                 F               0         Blade 1 Y force, node 17, N
         51   -1.101E+03                                 F               0         Blade 1 Z force, node 17, N
         52    2.398E+03                                 F               0         Blade 1 X force, node 18, N
         53   -3.696E+02                                 F               0         Blade 1 Y force, node 18, N
         54   -8.416E+02                                 F               0         Blade 1 Z force, node 18, N
         55    2.974E+03                                 F               0         Blade 1 X force, node 19, N
         56   -4.295E+02                                 F               0         Blade 1 Y force, node 19, N
         57   -1.032E+03                                 F               0         Blade 1 Z force, node 19, N
         58    2.560E+03                                 F               0         Blade 1 X force, node 20, N
         59   -3.472E+02                                 F               0         Blade 1 Y force, node 20, N
         60   -8.784E+02                                 F               0         Blade 1 Z force, node 20, N
         61    3.820E+03                                 F               0         Blade 1 X force, node 21, N
         62   -4.809E+02                                 F               0         Blade 1 Y force, node 21, N
         63   -1.295E+03                                 F               0         Blade 1 Z force, node 21, N
         64    3.405E+03                                 F               0         Blade 1 X force, node 22, N
         65   -3.967E+02                                 F               0         Blade 1 Y force, node 22, N
         66   -1.141E+03                                 F               0         Blade 1 Z force, node 22, N
         67    3.527E+03                                 F               0         Blade 1 X force, node 23, N
         68   -3.825E+02                                 F               0         Blade 1 Y force, node 23, N
         69   -1.170E+03                                 F               0         Blade 1 Z force, node 23, N
         70    3.713E+03                                 F               0         Blade 1 X force, node 24, N
         71   -3.746E+02                                 F               0         Blade 1 Y force, node 24, N
         72   -1.220E+03                                 F               0         Blade 1 Z force, node 24, N
         73    3.833E+03                                 F               0         Blade 1 X force, node 25, N
         74   -3.591E+02                                 F               0         Blade 1 Y force, node 25, N
         75   -1.248E+03                                 F               0         Blade 1 Z force, node 25, N
         76    3.975E+03                                 F               0         Blade 1 X force, node 26, N
         77   -3.456E+02                                 F               0         Blade 1 Y force, node 26, N
         78   -1.283E+03                                 F               0         Blade 1 Z force, node 26, N
         79    4.796E+03                                 F               0         Blade 1 X force, node 27, N
         80   -3.850E+02                                 F               0         Blade 1 Y force, node 27, N
         81   -1.535E+03                                 F               0         Blade 1 Z force, node 27, N
         82    3.578E+03                                 F               0         Blade 1 X force, node 28, N
         83   -2.649E+02                                 F               0         Blade 1 Y force, node 28, N
         84   -1.136E+03                                 F               0         Blade 1 Z force, node 28, N
         85    4.400E+03                                 F               0         Blade 1 X force, node 29, N
         86   -3.036E+02                                 F               0         Blade 1 Y force, node 29, N
         87   -1.387E+03                                 F               0         Blade 1 Z force, node 29, N
         88    3.761E+03                                 F               0         Blade 1 X force, node 30, N
         89   -2.417E+02                                 F               0         Blade 1 Y force, node 30, N
         90   -1.178E+03                                 F               0         Blade 1 Z force, node 30, N
         91    5.463E+03                                 F               0         Blade 1 X force, node 31, N
         92   -3.221E+02                                 F               0         Blade 1 Y force, node 31, N
         93   -1.699E+03                                 F               0         Blade 1 Z force, node 31, N
         94    4.823E+03                                 F               0         Blade 1 X force, node 32, N
         95   -2.595E+02                                 F               0         Blade 1 Y force, node 32, N
         96   -1.490E+03                                 F               0         Blade 1 Z force, node 32, N
         97    4.963E+03                                 F               0         Blade 1 X force, node 33, N
         98   -2.444E+02                                 F               0         Blade 1 Y force, node 33, N
         99   -1.524E+03                                 F               0         Blade 1 Z force, node 33, N
        100    5.104E+03                                 F               0         Blade 1 X force, node 34, N
        101   -2.292E+02                                 F               0         Blade 1 Y force, node 34, N
        102   -1.558E+03                                 F               0         Blade 1 Z force, node 34, N
        103    5.245E+03                                 F               0         Blade 1 X force, node 35, N
        104   -2.138E+02                                 F               0         Blade 1 Y force, node 35, N
        105   -1.592E+03                                 F               0         Blade 1 Z force, node 35, N
        106    5.385E+03                                 F               0         Blade 1 X force, node 36, N
        107   -1.982E+02                                 F               0         Blade 1 Y force, node 36, N
        108   -1.625E+03                                 F               0         Blade 1 Z force, node 36, N
        109    6.466E+03                                 F               0         Blade 1 X force, node 37, N
        110   -2.121E+02                                 F               0         Blade 1 Y force, node 37, N
        111   -1.940E+03                                 F               0         Blade 1 Z force, node 37, N
        112    4.725E+03                                 F               0         Blade 1 X force, node 38, N
        113   -1.373E+02                                 F               0         Blade 1 Y force, node 38, N
        114   -1.411E+03                                 F               0         Blade 1 Z force, node 38, N
        115    5.807E+03                                 F               0         Blade 1 X force, node 39, N
        116   -1.511E+02                                 F               0         Blade 1 Y force, node 39, N
        117   -1.726E+03                                 F               0         Blade 1 Z force, node 39, N
        118    4.965E+03                                 F               0         Blade 1 X force, node 40, N
        119   -1.146E+02                                 F               0         Blade 1 Y force, node 40, N
        120   -1.470E+03                                 F               0         Blade 1 Z force, node 40, N
        121    7.073E+03                                 F               0         Blade 1 X force, node 41, N
        122   -1.399E+02                                 F               0         Blade 1 Y force, node 41, N
        123   -2.084E+03                                 F               0         Blade 1 Z force, node 41, N
        124    6.228E+03                                 F               0         Blade 1 X force, node 42, N
        125   -1.030E+02                                 F               0         Blade 1 Y force, node 42, N
        126   -1.827E+03                                 F               0         Blade 1 Z force, node 42, N
        127    6.367E+03                                 F               0         Blade 1 X force, node 43, N
        128   -8.666E+01                                 F               0         Blade 1 Y force, node 43, N
        129   -1.859E+03                                 F               0         Blade 1 Z force, node 43, N
        130    6.540E+03                                 F               0         Blade 1 X force, node 44, N
        131   -7.067E+01                                 F               0         Blade 1 Y force, node 44, N
        132   -1.902E+03                                 F               0         Blade 1 Z force, node 44, N
        133    6.610E+03                                 F               0         Blade 1 X force, node 45, N
        134   -5.354E+01                                 F               0         Blade 1 Y force, node 45, N
        135   -1.915E+03                                 F               0         Blade 1 Z force, node 45, N
        136    6.783E+03                                 F               0         Blade 1 X force, node 46, N
        137   -3.740E+01                                 F               0         Blade 1 Y force, node 46, N
        138   -1.958E+03                                 F               0         Blade 1 Z force, node 46, N
        139    8.138E+03                                 F               0         Blade 1 X force, node 47, N
        140   -2.326E+01                                 F               0         Blade 1 Y force, node 47, N
        141   -2.340E+03                                 F               0         Blade 1 Z force, node 47, N
        142    5.845E+03                                 F               0         Blade 1 X force, node 48, N
        143   -1.941E+00                                 F               0         Blade 1 Y force, node 48, N
        144   -1.675E+03                                 F               0         Blade 1 Z force, node 48, N
        145    7.198E+03                                 F               0         Blade 1 X force, node 49, N
        146    1.243E+01                                 F               0         Blade 1 Y force, node 49, N
        147   -2.056E+03                                 F               0         Blade 1 Z force, node 49, N
        148    6.169E+03                                 F               0         Blade 1 X force, node 50, N
        149    2.307E+01                                 F               0         Blade 1 Y force, node 50, N
        150   -1.757E+03                                 F               0         Blade 1 Z force, node 50, N
        151    8.643E+03                                 F               0         Blade 1 X force, node 51, N
        152    5.193E+01                                 F               0         Blade 1 Y force, node 51, N
        153   -2.453E+03                                 F               0         Blade 1 Z force, node 51, N
        154    7.615E+03                                 F               0         Blade 1 X force, node 52, N
        155    6.257E+01                                 F               0         Blade 1 Y force, node 52, N
        156   -2.154E+03                                 F               0         Blade 1 Z force, node 52, N
        157    7.755E+03                                 F               0         Blade 1 X force, node 53, N
        158    7.929E+01                                 F               0         Blade 1 Y force, node 53, N
        159   -2.187E+03                                 F               0         Blade 1 Z force, node 53, N
        160    7.981E+03                                 F               0         Blade 1 X force, node 54, N
        161    9.715E+01                                 F               0         Blade 1 Y force, node 54, N
        162   -2.245E+03                                 F               0         Blade 1 Z force, node 54, N
        163    7.946E+03                                 F               0         Blade 1 X force, node 55, N
        164    1.118E+02                                 F               0         Blade 1 Y force, node 55, N
        165   -2.229E+03                                 F               0         Blade 1 Z force, node 55, N
        166    8.172E+03                                 F               0         Blade 1 X force, node 56, N
        167    1.298E+02                                 F               0         Blade 1 Y force, node 56, N
        168   -2.286E+03                                 F               0         Blade 1 Z force, node 56, N
        169    9.816E+03                                 F               0         Blade 1 X force, node 57, N
        170    1.744E+02                                 F               0         Blade 1 Y force, node 57, N
        171   -2.738E+03                                 F               0         Blade 1 Z force, node 57, N
        172    6.945E+03                                 F               0         Blade 1 X force, node 58, N
        173    1.359E+02                                 F               0         Blade 1 Y force, node 58, N
        174   -1.932E+03                                 F               0         Blade 1 Z force, node 58, N
        175    8.588E+03                                 F               0         Blade 1 X force, node 59, N
        176    1.807E+02                                 F               0         Blade 1 Y force, node 59, N
        177   -2.384E+03                                 F               0         Blade 1 Z force, node 59, N
        178    7.390E+03                                 F               0         Blade 1 X force, node 60, N
        179    1.662E+02                                 F               0         Blade 1 Y force, node 60, N
        180   -2.047E+03                                 F               0         Blade 1 Z force, node 60, N
        181    1.020E+04                                 F               0         Blade 1 X force, node 61, N
        182    2.462E+02                                 F               0         Blade 1 Y force, node 61, N
        183   -2.818E+03                                 F               0         Blade 1 Z force, node 61, N
        184    9.001E+03                                 F               0         Blade 1 X force, node 62, N