
Linearized model: Predictions were generated on 19-Dec-2023 at 09:27:32 using OpenFAST, compiled as a 64-bit application using single precision at commit v3.5.1
 linked with  NWTC Subroutine Library; ElastoDyn; InflowWind; AeroDyn; ServoDyn; HydroDyn; MoorDyn (v2.0.0, 2023-09-18)

Description from the FAST input file: CCT-9 Campign 4 model. Input files to be run with OpenFAST 3.5.0. GitHub branch from Lu Wang (https://github.com/luwang00/openfast/tree/dev) compiled on March 7, 2023.

Simulation information:
   Simulation time:                  1004.4750 s
   Rotor Speed:                         1.0411 rad/s
   Azimuth:                             3.5032 rad
   Wind Speed:                         12.0000 m/s
   Number of continuous states:         0
   Number of discrete states:           0
   Number of constraint states:         0
   Number of inputs:                   37
   Number of outputs:                   1
   Jacobians included in this file?    No

Order of inputs:
     Column   Operating Point                     Rotating Frame? Derivative Order Description
   ---------- ---------------                     --------------- ---------------- -----------
          1    1.230E+01                                 F               0         WAMIT X translation displacement, node 1, m
          2   -2.045E-01                                 F               0         WAMIT Y translation displacement, node 1, m
          3   -1.950E-01                                 F               0         WAMIT Z translation displacement, node 1, m
          4    9.881E-01,  1.566E-02, -1.528E-01         F               0         WAMIT X orientation angle, node 1, rad
          5   -9.750E-03,  9.992E-01,  3.935E-02         F               0         WAMIT Y orientation angle, node 1, rad
          6    1.533E-01, -3.739E-02,  9.875E-01         F               0         WAMIT Z orientation angle, node 1, rad
          7   -1.376E-04                                 F               0         WAMIT X translation velocity, node 1, m/s
          8   -2.502E-04                                 F               0         WAMIT Y translation velocity, node 1, m/s
          9    5.476E-03                                 F               0         WAMIT Z translation velocity, node 1, m/s
         10    8.153E-04                                 F               0         WAMIT X rotation velocity, node 1, rad/s
         11    4.644E-05                                 F               0         WAMIT Y rotation velocity, node 1, rad/s
         12   -3.079E-04                                 F               0         WAMIT Z rotation velocity, node 1, rad/s
         13   -5.587E-04                                 F               0         WAMIT X translation acceleration, node 1, m/s^2
         14   -5.710E-04                                 F               0         WAMIT Y translation acceleration, node 1, m/s^2
         15   -2.502E-04                                 F               0         WAMIT Z translation acceleration, node 1, m/s^2
         16    1.608E-04                                 F               0         WAMIT X rotation acceleration, node 1, rad/s^2
         17   -3.194E-05                                 F               0         WAMIT Y rotation acceleration, node 1, rad/s^2
         18   -1.867E-05                                 F               0         WAMIT Z rotation acceleration, node 1, rad/s^2
         19    1.230E+01                                 F               0         Platform-RefPt X translation displacement, node 1, m
         20   -2.045E-01                                 F               0         Platform-RefPt Y translation displacement, node 1, m
         21   -1.950E-01                                 F               0         Platform-RefPt Z translation displacement, node 1, m
         22    9.881E-01,  1.566E-02, -1.528E-01         F               0         Platform-RefPt X orientation angle, node 1, rad
         23   -9.750E-03,  9.992E-01,  3.935E-02         F               0         Platform-RefPt Y orientation angle, node 1, rad
         24    1.533E-01, -3.739E-02,  9.875E-01         F               0         Platform-RefPt Z orientation angle, node 1, rad
         25   -1.376E-04                                 F               0         Platform-RefPt X translation velocity, node 1, m/s
         26   -2.502E-04                                 F               0         Platform-RefPt Y translation velocity, node 1, m/s
         27    5.476E-03                                 F               0         Platform-RefPt Z translation velocity, node 1, m/s
         28    8.153E-04                                 F               0         Platform-RefPt X rotation velocity, node 1, rad/s
         29    4.644E-05                                 F               0         Platform-RefPt Y rotation velocity, node 1, rad/s
         30   -3.079E-04                                 F               0         Platform-RefPt Z rotation velocity, node 1, rad/s
         31   -5.587E-04                                 F               0         Platform-RefPt X translation acceleration, node 1, m/s^2
         32   -5.710E-04                                 F               0         Platform-RefPt Y translation acceleration, node 1, m/s^2
         33   -2.502E-04                                 F               0         Platform-RefPt Z translation acceleration, node 1, m/s^2
         34    1.608E-04                                 F               0         Platform-RefPt X rotation acceleration, node 1, rad/s^2
         35   -3.194E-05                                 F               0         Platform-RefPt Y rotation acceleration, node 1, rad/s^2
         36   -1.867E-05                                 F               0         Platform-RefPt Z rotation acceleration, node 1, rad/s^2
         37    0.000E+00                                 F               0         Extended input: wave elevation at platform ref point, m

Order of outputs:
        Row   Operating Point                     Rotating Frame? Derivative Order Description
   ---------- ---------------                     --------------- ---------------- -----------
          1    0.000E+00                                 F               0         Wave1Elev, (m)


Linearized state matrices:

D: 1 x 37
    0.000E+00  0.000E+00  0.000E+00  0.000E+00  0.000E+00  0.000E+00  0.000E+00  0.000E+00  0.000E+00  0.000E+00  0.000E+00  0.000E+00  0.000E+00  0.000E+00  0.000E+00  0.000E+00  0.000E+00  0.000E+00  0.000E+00  0.000E+00  0.000E+00  0.000E+00  0.000E+00  0.000E+00  0.000E+00  0.000E+00  0.000E+00  0.000E+00  0.000E+00  0.000E+00  0.000E+00  0.000E+00  0.000E+00  0.000E+00  0.000E+00  0.000E+00  0.000E+00
