
Linearized model: Predictions were generated on 19-Dec-2023 at 09:27:32 using OpenFAST, compiled as a 64-bit application using single precision at commit v3.5.1
 linked with  NWTC Subroutine Library; ElastoDyn; InflowWind; AeroDyn; ServoDyn; HydroDyn; MoorDyn (v2.0.0, 2023-09-18)

Description from the FAST input file: CCT-9 Campign 4 model. Input files to be run with OpenFAST 3.5.0. GitHub branch from Lu Wang (https://github.com/luwang00/openfast/tree/dev) compiled on March 7, 2023.

Simulation information:
   Simulation time:                  1004.2250 s
   Rotor Speed:                         1.0411 rad/s
   Azimuth:                             3.2430 rad
   Wind Speed:                         12.0000 m/s
   Number of continuous states:        22
   Number of discrete states:           0
   Number of constraint states:         0
   Number of inputs:                 4033
   Number of outputs:                  49
   Jacobians included in this file?    No

Order of continuous states:
   Row/Column Operating Point                     Rotating Frame? Derivative Order Description
   ---------- ---------------                     --------------- ---------------- -----------
          1    1.230E+01                                 F               2         ED Platform horizontal surge translation DOF (internal DOF index = DOF_Sg), m
          2   -2.044E-01                                 F               2         ED Platform horizontal sway translation DOF (internal DOF index = DOF_Sw), m
          3   -1.963E-01                                 F               2         ED Platform vertical heave translation DOF (internal DOF index = DOF_Hv), m
          4    3.866E-02                                 F               2         ED Platform roll tilt rotation DOF (internal DOF index = DOF_R), rad
          5    1.550E-01                                 F               2         ED Platform pitch tilt rotation DOF (internal DOF index = DOF_P), rad
          6    1.294E-02                                 F               2         ED Platform yaw rotation DOF (internal DOF index = DOF_Y), rad
          7    1.076E+00                                 F               2         ED 1st tower fore-aft bending mode DOF (internal DOF index = DOF_TFA1), m
          8    1.433E-01                                 F               2         ED 1st tower side-to-side bending mode DOF (internal DOF index = DOF_TSS1), m
          9    1.608E-03                                 F               2         ED 2nd tower fore-aft bending mode DOF (internal DOF index = DOF_TFA2), m
         10    6.450E-05                                 F               2         ED 2nd tower side-to-side bending mode DOF (internal DOF index = DOF_TSS2), m
         11    1.672E+00                                 F               2         ED Variable speed generator DOF (internal DOF index = DOF_GeAz), rad
         12   -2.904E-05                                 F               2         ED First time derivative of Platform horizontal surge translation DOF (internal DOF index = DOF_Sg), m/s
         13   -8.851E-05                                 F               2         ED First time derivative of Platform horizontal sway translation DOF (internal DOF index = DOF_Sw), m/s
         14    5.517E-03                                 F               2         ED First time derivative of Platform vertical heave translation DOF (internal DOF index = DOF_Hv), m/s
         15    7.730E-04                                 F               2         ED First time derivative of Platform roll tilt rotation DOF (internal DOF index = DOF_R), rad/s
         16    5.268E-05                                 F               2         ED First time derivative of Platform pitch tilt rotation DOF (internal DOF index = DOF_P), rad/s
         17   -3.025E-04                                 F               2         ED First time derivative of Platform yaw rotation DOF (internal DOF index = DOF_Y), rad/s
         18   -2.030E-03                                 F               2         ED First time derivative of 1st tower fore-aft bending mode DOF (internal DOF index = DOF_TFA1), m/s
         19    4.051E-03                                 F               2         ED First time derivative of 1st tower side-to-side bending mode DOF (internal DOF index = DOF_TSS1), m/s
         20   -6.472E-06                                 F               2         ED First time derivative of 2nd tower fore-aft bending mode DOF (internal DOF index = DOF_TFA2), m/s
         21    2.337E-06                                 F               2         ED First time derivative of 2nd tower side-to-side bending mode DOF (internal DOF index = DOF_TSS2), m/s
         22    1.041E+00                                 F               2         ED First time derivative of Variable speed generator DOF (internal DOF index = DOF_GeAz), rad/s

Order of continuous state derivatives:
   Row/Column Operating Point                     Rotating Frame? Derivative Order Description
   ---------- ---------------                     --------------- ---------------- -----------
          1   -2.904E-05                                 F               2         First time derivative of ED Platform horizontal surge translation DOF (internal DOF index = DOF_Sg), m/s
          2   -8.851E-05                                 F               2         First time derivative of ED Platform horizontal sway translation DOF (internal DOF index = DOF_Sw), m/s
          3    5.517E-03                                 F               2         First time derivative of ED Platform vertical heave translation DOF (internal DOF index = DOF_Hv), m/s
          4    7.730E-04                                 F               2         First time derivative of ED Platform roll tilt rotation DOF (internal DOF index = DOF_R), rad/s
          5    5.268E-05                                 F               2         First time derivative of ED Platform pitch tilt rotation DOF (internal DOF index = DOF_P), rad/s
          6   -3.025E-04                                 F               2         First time derivative of ED Platform yaw rotation DOF (internal DOF index = DOF_Y), rad/s
          7   -2.030E-03                                 F               2         First time derivative of ED 1st tower fore-aft bending mode DOF (internal DOF index = DOF_TFA1), m/s
          8    4.051E-03                                 F               2         First time derivative of ED 1st tower side-to-side bending mode DOF (internal DOF index = DOF_TSS1), m/s
          9   -6.472E-06                                 F               2         First time derivative of ED 2nd tower fore-aft bending mode DOF (internal DOF index = DOF_TFA2), m/s
         10    2.337E-06                                 F               2         First time derivative of ED 2nd tower side-to-side bending mode DOF (internal DOF index = DOF_TSS2), m/s
         11    1.041E+00                                 F               2         First time derivative of ED Variable speed generator DOF (internal DOF index = DOF_GeAz), rad/s
         12   -2.840E-04                                 F               2         First time derivative of ED First time derivative of Platform horizontal surge translation DOF (internal DOF index = DOF_Sg), m/s/s
         13   -7.104E-04                                 F               2         First time derivative of ED First time derivative of Platform horizontal sway translation DOF (internal DOF index = DOF_Sw), m/s/s
         14   -7.400E-05                                 F               2         First time derivative of ED First time derivative of Platform vertical heave translation DOF (internal DOF index = DOF_Hv), m/s/s
         15    1.774E-04                                 F               2         First time derivative of ED First time derivative of Platform roll tilt rotation DOF (internal DOF index = DOF_R), rad/s/s
         16   -1.660E-05                                 F               2         First time derivative of ED First time derivative of Platform pitch tilt rotation DOF (internal DOF index = DOF_P), rad/s/s
         17   -2.347E-05                                 F               2         First time derivative of ED First time derivative of Platform yaw rotation DOF (internal DOF index = DOF_Y), rad/s/s
         18    2.024E-03                                 F               2         First time derivative of ED First time derivative of 1st tower fore-aft bending mode DOF (internal DOF index = DOF_TFA1), m/s/s
         19   -1.981E-03                                 F               2         First time derivative of ED First time derivative of 1st tower side-to-side bending mode DOF (internal DOF index = DOF_TSS1), m/s/s
         20    5.829E-07                                 F               2         First time derivative of ED First time derivative of 2nd tower fore-aft bending mode DOF (internal DOF index = DOF_TFA2), m/s/s
         21   -3.431E-06                                 F               2         First time derivative of ED First time derivative of 2nd tower side-to-side bending mode DOF (internal DOF index = DOF_TSS2), m/s/s
         22   -7.941E-06                                 F               2         First time derivative of ED First time derivative of Variable speed generator DOF (internal DOF index = DOF_GeAz), rad/s/s

Order of inputs:
     Column   Operating Point                     Rotating Frame? Derivative Order Description
   ---------- ---------------                     --------------- ---------------- -----------
          1   -1.080E+01                                 F               0         IfW X-component position of node 1 (hub), m
          2    0.000E+00                                 F               0         IfW Y-component position of node 1 (hub), m
          3    1.497E+02                                 F               0         IfW Z-component position of node 1 (hub), m
          4    2.429E+01                                 F               0         IfW X-component position of node 2 (blade 1, node 1), m
          5   -5.323E+00                                 F               0         IfW Y-component position of node 2 (blade 1, node 1), m
          6    1.440E+02                                 F               0         IfW Z-component position of node 2 (blade 1, node 1), m
          7    2.393E+01                                 F               0         IfW X-component position of node 3 (blade 1, node 2), m
          8   -5.139E+00                                 F               0         IfW Y-component position of node 3 (blade 1, node 2), m
          9    1.427E+02                                 F               0         IfW Z-component position of node 3 (blade 1, node 2), m
         10    1.907E+01                                 F               0         IfW X-component position of node 4 (blade 1, node 3), m
         11   -2.639E+00                                 F               0         IfW Y-component position of node 4 (blade 1, node 3), m
         12    1.254E+02                                 F               0         IfW Z-component position of node 4 (blade 1, node 3), m
         13    1.804E+01                                 F               0         IfW X-component position of node 5 (blade 1, node 4), m
         14   -2.106E+00                                 F               0         IfW Y-component position of node 5 (blade 1, node 4), m
         15    1.217E+02                                 F               0         IfW Z-component position of node 5 (blade 1, node 4), m
         16    1.700E+01                                 F               0         IfW X-component position of node 6 (blade 1, node 5), m
         17   -1.574E+00                                 F               0         IfW Y-component position of node 6 (blade 1, node 5), m
         18    1.180E+02                                 F               0         IfW Z-component position of node 6 (blade 1, node 5), m
         19    1.597E+01                                 F               0         IfW X-component position of node 7 (blade 1, node 6), m
         20   -1.041E+00                                 F               0         IfW Y-component position of node 7 (blade 1, node 6), m
         21    1.143E+02                                 F               0         IfW Z-component position of node 7 (blade 1, node 6), m
         22    1.493E+01                                 F               0         IfW X-component position of node 8 (blade 1, node 7), m
         23   -5.082E-01                                 F               0         IfW Y-component position of node 8 (blade 1, node 7), m
         24    1.106E+02                                 F               0         IfW Z-component position of node 8 (blade 1, node 7), m
         25    1.389E+01                                 F               0         IfW X-component position of node 9 (blade 1, node 8), m
         26    2.459E-02                                 F               0         IfW Y-component position of node 9 (blade 1, node 8), m
         27    1.070E+02                                 F               0         IfW Z-component position of node 9 (blade 1, node 8), m
         28    1.286E+01                                 F               0         IfW X-component position of node 10 (blade 1, node 9), m
         29    5.573E-01                                 F               0         IfW Y-component position of node 10 (blade 1, node 9), m
         30    1.033E+02                                 F               0         IfW Z-component position of node 10 (blade 1, node 9), m
         31    1.182E+01                                 F               0         IfW X-component position of node 11 (blade 1, node 10), m
         32    1.090E+00                                 F               0         IfW Y-component position of node 11 (blade 1, node 10), m
         33    9.958E+01                                 F               0         IfW Z-component position of node 11 (blade 1, node 10), m
         34    1.079E+01                                 F               0         IfW X-component position of node 12 (blade 1, node 11), m
         35    1.623E+00                                 F               0         IfW Y-component position of node 12 (blade 1, node 11), m
         36    9.589E+01                                 F               0         IfW Z-component position of node 12 (blade 1, node 11), m
         37    9.753E+00                                 F               0         IfW X-component position of node 13 (blade 1, node 12), m
         38    2.155E+00                                 F               0         IfW Y-component position of node 13 (blade 1, node 12), m
         39    9.220E+01                                 F               0         IfW Z-component position of node 13 (blade 1, node 12), m
         40    8.718E+00                                 F               0         IfW X-component position of node 14 (blade 1, node 13), m
         41    2.688E+00                                 F               0         IfW Y-component position of node 14 (blade 1, node 13), m
         42    8.851E+01                                 F               0         IfW Z-component position of node 14 (blade 1, node 13), m
         43    7.683E+00                                 F               0         IfW X-component position of node 15 (blade 1, node 14), m
         44    3.221E+00                                 F               0         IfW Y-component position of node 15 (blade 1, node 14), m
         45    8.483E+01                                 F               0         IfW Z-component position of node 15 (blade 1, node 14), m
         46    6.647E+00                                 F               0         IfW X-component position of node 16 (blade 1, node 15), m
         47    3.754E+00                                 F               0         IfW Y-component position of node 16 (blade 1, node 15), m
         48    8.114E+01                                 F               0         IfW Z-component position of node 16 (blade 1, node 15), m
         49    5.612E+00                                 F               0         IfW X-component position of node 17 (blade 1, node 16), m
         50    4.286E+00                                 F               0         IfW Y-component position of node 17 (blade 1, node 16), m
         51    7.745E+01                                 F               0         IfW Z-component position of node 17 (blade 1, node 16), m
         52    4.577E+00                                 F               0         IfW X-component position of node 18 (blade 1, node 17), m
         53    4.819E+00                                 F               0         IfW Y-component position of node 18 (blade 1, node 17), m
         54    7.376E+01                                 F               0         IfW Z-component position of node 18 (blade 1, node 17), m
         55    3.542E+00                                 F               0         IfW X-component position of node 19 (blade 1, node 18), m
         56    5.352E+00                                 F               0         IfW Y-component position of node 19 (blade 1, node 18), m
         57    7.007E+01                                 F               0         IfW Z-component position of node 19 (blade 1, node 18), m
         58    2.506E+00                                 F               0         IfW X-component position of node 20 (blade 1, node 19), m
         59    5.884E+00                                 F               0         IfW Y-component position of node 20 (blade 1, node 19), m
         60    6.638E+01                                 F               0         IfW Z-component position of node 20 (blade 1, node 19), m
         61    1.471E+00                                 F               0         IfW X-component position of node 21 (blade 1, node 20), m
         62    6.417E+00                                 F               0         IfW Y-component position of node 21 (blade 1, node 20), m
         63    6.270E+01                                 F               0         IfW Z-component position of node 21 (blade 1, node 20), m
         64    4.356E-01                                 F               0         IfW X-component position of node 22 (blade 1, node 21), m
         65    6.950E+00                                 F               0         IfW Y-component position of node 22 (blade 1, node 21), m
         66    5.901E+01                                 F               0         IfW Z-component position of node 22 (blade 1, node 21), m
         67   -5.998E-01                                 F               0         IfW X-component position of node 23 (blade 1, node 22), m
         68    7.483E+00                                 F               0         IfW Y-component position of node 23 (blade 1, node 22), m
         69    5.532E+01                                 F               0         IfW Z-component position of node 23 (blade 1, node 22), m
         70   -1.635E+00                                 F               0         IfW X-component position of node 24 (blade 1, node 23), m
         71    8.015E+00                                 F               0         IfW Y-component position of node 24 (blade 1, node 23), m
         72    5.163E+01                                 F               0         IfW Z-component position of node 24 (blade 1, node 23), m
         73   -2.670E+00                                 F               0         IfW X-component position of node 25 (blade 1, node 24), m
         74    8.548E+00                                 F               0         IfW Y-component position of node 25 (blade 1, node 24), m
         75    4.794E+01                                 F               0         IfW Z-component position of node 25 (blade 1, node 24), m
         76   -3.706E+00                                 F               0         IfW X-component position of node 26 (blade 1, node 25), m
         77    9.081E+00                                 F               0         IfW Y-component position of node 26 (blade 1, node 25), m
         78    4.425E+01                                 F               0         IfW Z-component position of node 26 (blade 1, node 25), m
         79   -4.741E+00                                 F               0         IfW X-component position of node 27 (blade 1, node 26), m
         80    9.614E+00                                 F               0         IfW Y-component position of node 27 (blade 1, node 26), m
         81    4.057E+01                                 F               0         IfW Z-component position of node 27 (blade 1, node 26), m
         82   -5.776E+00                                 F               0         IfW X-component position of node 28 (blade 1, node 27), m
         83    1.015E+01                                 F               0         IfW Y-component position of node 28 (blade 1, node 27), m
         84    3.688E+01                                 F               0         IfW Z-component position of node 28 (blade 1, node 27), m
         85   -6.654E+00                                 F               0         IfW X-component position of node 29 (blade 1, node 28), m
         86    1.060E+01                                 F               0         IfW Y-component position of node 29 (blade 1, node 28), m
         87    3.375E+01                                 F               0         IfW Z-component position of node 29 (blade 1, node 28), m
         88    2.660E+01                                 F               0         IfW X-component position of node 30 (blade 2, node 1), m
         89   -1.717E+00                                 F               0         IfW Y-component position of node 30 (blade 2, node 1), m
         90    1.526E+02                                 F               0         IfW Z-component position of node 30 (blade 2, node 1), m
         91    2.680E+01                                 F               0         IfW X-component position of node 31 (blade 2, node 2), m
         92   -6.638E-01                                 F               0         IfW Y-component position of node 31 (blade 2, node 2), m
         93    1.534E+02                                 F               0         IfW Z-component position of node 31 (blade 2, node 2), m
         94    2.950E+01                                 F               0         IfW X-component position of node 32 (blade 2, node 3), m
         95    1.365E+01                                 F               0         IfW Y-component position of node 32 (blade 2, node 3), m
         96    1.642E+02                                 F               0         IfW Z-component position of node 32 (blade 2, node 3), m
         97    3.008E+01                                 F               0         IfW X-component position of node 33 (blade 2, node 4), m
         98    1.670E+01                                 F               0         IfW Y-component position of node 33 (blade 2, node 4), m
         99    1.665E+02                                 F               0         IfW Z-component position of node 33 (blade 2, node 4), m
        100    3.066E+01                                 F               0         IfW X-component position of node 34 (blade 2, node 5), m
        101    1.975E+01                                 F               0         IfW Y-component position of node 34 (blade 2, node 5), m
        102    1.688E+02                                 F               0         IfW Z-component position of node 34 (blade 2, node 5), m
        103    3.123E+01                                 F               0         IfW X-component position of node 35 (blade 2, node 6), m
        104    2.281E+01                                 F               0         IfW Y-component position of node 35 (blade 2, node 6), m
        105    1.711E+02                                 F               0         IfW Z-component position of node 35 (blade 2, node 6), m
        106    3.181E+01                                 F               0         IfW X-component position of node 36 (blade 2, node 7), m
        107    2.586E+01                                 F               0         IfW Y-component position of node 36 (blade 2, node 7), m
        108    1.734E+02                                 F               0         IfW Z-component position of node 36 (blade 2, node 7), m
        109    3.239E+01                                 F               0         IfW X-component position of node 37 (blade 2, node 8), m
        110    2.891E+01                                 F               0         IfW Y-component position of node 37 (blade 2, node 8), m
        111    1.757E+02                                 F               0         IfW Z-component position of node 37 (blade 2, node 8), m
        112    3.296E+01                                 F               0         IfW X-component position of node 38 (blade 2, node 9), m
        113    3.196E+01                                 F               0         IfW Y-component position of node 38 (blade 2, node 9), m
        114    1.780E+02                                 F               0         IfW Z-component position of node 38 (blade 2, node 9), m
        115    3.354E+01                                 F               0         IfW X-component position of node 39 (blade 2, node 10), m
        116    3.501E+01                                 F               0         IfW Y-component position of node 39 (blade 2, node 10), m
        117    1.803E+02                                 F               0         IfW Z-component position of node 39 (blade 2, node 10), m
        118    3.412E+01                                 F               0         IfW X-component position of node 40 (blade 2, node 11), m
        119    3.806E+01                                 F               0         IfW Y-component position of node 40 (blade 2, node 11), m
        120    1.826E+02                                 F               0         IfW Z-component position of node 40 (blade 2, node 11), m
        121    3.469E+01                                 F               0         IfW X-component position of node 41 (blade 2, node 12), m
        122    4.111E+01                                 F               0         IfW Y-component position of node 41 (blade 2, node 12), m
        123    1.849E+02                                 F               0         IfW Z-component position of node 41 (blade 2, node 12), m
        124    3.527E+01                                 F               0         IfW X-component position of node 42 (blade 2, node 13), m
        125    4.416E+01                                 F               0         IfW Y-component position of node 42 (blade 2, node 13), m
        126    1.873E+02                                 F               0         IfW Z-component position of node 42 (blade 2, node 13), m
        127    3.585E+01                                 F               0         IfW X-component position of node 43 (blade 2, node 14), m
        128    4.721E+01                                 F               0         IfW Y-component position of node 43 (blade 2, node 14), m
        129    1.896E+02                                 F               0         IfW Z-component position of node 43 (blade 2, node 14), m
        130    3.642E+01                                 F               0         IfW X-component position of node 44 (blade 2, node 15), m
        131    5.026E+01                                 F               0         IfW Y-component position of node 44 (blade 2, node 15), m
        132    1.919E+02                                 F               0         IfW Z-component position of node 44 (blade 2, node 15), m
        133    3.700E+01                                 F               0         IfW X-component position of node 45 (blade 2, node 16), m
        134    5.331E+01                                 F               0         IfW Y-component position of node 45 (blade 2, node 16), m
        135    1.942E+02                                 F               0         IfW Z-component position of node 45 (blade 2, node 16), m
        136    3.758E+01                                 F               0         IfW X-component position of node 46 (blade 2, node 17), m
        137    5.636E+01                                 F               0         IfW Y-component position of node 46 (blade 2, node 17), m
        138    1.965E+02                                 F               0         IfW Z-component position of node 46 (blade 2, node 17), m
        139    3.815E+01                                 F               0         IfW X-component position of node 47 (blade 2, node 18), m
        140    5.941E+01                                 F               0         IfW Y-component position of node 47 (blade 2, node 18), m
        141    1.988E+02                                 F               0         IfW Z-component position of node 47 (blade 2, node 18), m
        142    3.873E+01                                 F               0         IfW X-component position of node 48 (blade 2, node 19), m
        143    6.246E+01                                 F               0         IfW Y-component position of node 48 (blade 2, node 19), m
        144    2.011E+02                                 F               0         IfW Z-component position of node 48 (blade 2, node 19), m