
Linearized model: Predictions were generated on 19-Dec-2023 at 09:27:32 using OpenFAST, compiled as a 64-bit application using single precision at commit v3.5.1
 linked with  NWTC Subroutine Library; ElastoDyn; InflowWind; AeroDyn; ServoDyn; HydroDyn; MoorDyn (v2.0.0, 2023-09-18)

Description from the FAST input file: CCT-9 Campign 4 model. Input files to be run with OpenFAST 3.5.0. GitHub branch from Lu Wang (https://github.com/luwang00/openfast/tree/dev) compiled on March 7, 2023.

Simulation information:
   Simulation time:                  1008.9500 s
   Rotor Speed:                         1.0409 rad/s
   Azimuth:                             1.8781 rad
   Wind Speed:                         12.0000 m/s
   Number of continuous states:         0
   Number of discrete states:           0
   Number of constraint states:         0
   Number of inputs:                 1746
   Number of outputs:                   4
   Jacobians included in this file?    No

Order of inputs:
     Column   Operating Point                     Rotating Frame? Derivative Order Description
   ---------- ---------------                     --------------- ---------------- -----------
          1    1.511E+01                                 F               0         Tower X translation displacement, node 1, m
          2   -9.668E-01                                 F               0         Tower Y translation displacement, node 1, m
          3   -4.124E-01                                 F               0         Tower Z translation displacement, node 1, m
          4    1.702E+01                                 F               0         Tower X translation displacement, node 2, m
          5   -1.483E+00                                 F               0         Tower Y translation displacement, node 2, m
          6   -5.715E-01                                 F               0         Tower Z translation displacement, node 2, m
          7    1.896E+01                                 F               0         Tower X translation displacement, node 3, m
          8   -2.004E+00                                 F               0         Tower Y translation displacement, node 3, m
          9   -7.363E-01                                 F               0         Tower Z translation displacement, node 3, m
         10    2.093E+01                                 F               0         Tower X translation displacement, node 4, m
         11   -2.528E+00                                 F               0         Tower Y translation displacement, node 4, m
         12   -9.054E-01                                 F               0         Tower Z translation displacement, node 4, m
         13    2.292E+01                                 F               0         Tower X translation displacement, node 5, m
         14   -3.056E+00                                 F               0         Tower Y translation displacement, node 5, m
         15   -1.078E+00                                 F               0         Tower Z translation displacement, node 5, m
         16    2.493E+01                                 F               0         Tower X translation displacement, node 6, m
         17   -3.587E+00                                 F               0         Tower Y translation displacement, node 6, m
         18   -1.254E+00                                 F               0         Tower Z translation displacement, node 6, m
         19    2.695E+01                                 F               0         Tower X translation displacement, node 7, m
         20   -4.119E+00                                 F               0         Tower Y translation displacement, node 7, m
         21   -1.432E+00                                 F               0         Tower Z translation displacement, node 7, m
         22    2.898E+01                                 F               0         Tower X translation displacement, node 8, m
         23   -4.654E+00                                 F               0         Tower Y translation displacement, node 8, m
         24   -1.613E+00                                 F               0         Tower Z translation displacement, node 8, m
         25    3.103E+01                                 F               0         Tower X translation displacement, node 9, m
         26   -5.190E+00                                 F               0         Tower Y translation displacement, node 9, m
         27   -1.794E+00                                 F               0         Tower Z translation displacement, node 9, m
         28    3.307E+01                                 F               0         Tower X translation displacement, node 10, m
         29   -5.727E+00                                 F               0         Tower Y translation displacement, node 10, m
         30   -1.977E+00                                 F               0         Tower Z translation displacement, node 10, m
         31    3.512E+01                                 F               0         Tower X translation displacement, node 11, m
         32   -6.264E+00                                 F               0         Tower Y translation displacement, node 11, m
         33   -2.160E+00                                 F               0         Tower Z translation displacement, node 11, m
         34    9.881E-01,  1.467E-02, -1.529E-01         F               0         Tower X orientation angle, node 1, rad
         35   -8.125E-03,  9.990E-01,  4.338E-02         F               0         Tower Y orientation angle, node 1, rad
         36    1.533E-01, -4.162E-02,  9.873E-01         F               0         Tower Z orientation angle, node 1, rad
         37    9.877E-01,  1.478E-02, -1.554E-01         F               0         Tower X orientation angle, node 2, rad
         38   -8.064E-03,  9.990E-01,  4.377E-02         F               0         Tower Y orientation angle, node 2, rad
         39    1.559E-01, -4.198E-02,  9.869E-01         F               0         Tower Z orientation angle, node 2, rad
         40    9.874E-01,  1.488E-02, -1.577E-01         F               0         Tower X orientation angle, node 3, rad
         41   -8.008E-03,  9.990E-01,  4.413E-02         F               0         Tower Y orientation angle, node 3, rad
         42    1.582E-01, -4.231E-02,  9.865E-01         F               0         Tower Z orientation angle, node 3, rad
         43    9.871E-01,  1.497E-02, -1.597E-01         F               0         Tower X orientation angle, node 4, rad
         44   -7.958E-03,  9.990E-01,  4.443E-02         F               0         Tower Y orientation angle, node 4, rad
         45    1.602E-01, -4.259E-02,  9.862E-01         F               0         Tower Z orientation angle, node 4, rad
         46    9.868E-01,  1.504E-02, -1.613E-01         F               0         Tower X orientation angle, node 5, rad
         47   -7.915E-03,  9.990E-01,  4.470E-02         F               0         Tower Y orientation angle, node 5, rad
         48    1.618E-01, -4.283E-02,  9.859E-01         F               0         Tower Z orientation angle, node 5, rad
         49    9.866E-01,  1.509E-02, -1.626E-01         F               0         Tower X orientation angle, node 6, rad
         50   -7.879E-03,  9.990E-01,  4.492E-02         F               0         Tower Y orientation angle, node 6, rad
         51    1.631E-01, -4.303E-02,  9.857E-01         F               0         Tower Z orientation angle, node 6, rad
         52    9.864E-01,  1.514E-02, -1.637E-01         F               0         Tower X orientation angle, node 7, rad
         53   -7.850E-03,  9.990E-01,  4.509E-02         F               0         Tower Y orientation angle, node 7, rad
         54    1.642E-01, -4.320E-02,  9.855E-01         F               0         Tower Z orientation angle, node 7, rad
         55    9.863E-01,  1.517E-02, -1.644E-01         F               0         Tower X orientation angle, node 8, rad
         56   -7.827E-03,  9.989E-01,  4.523E-02         F               0         Tower Y orientation angle, node 8, rad
         57    1.649E-01, -4.332E-02,  9.854E-01         F               0         Tower Z orientation angle, node 8, rad
         58    9.862E-01,  1.520E-02, -1.650E-01         F               0         Tower X orientation angle, node 9, rad
         59   -7.810E-03,  9.989E-01,  4.533E-02         F               0         Tower Y orientation angle, node 9, rad
         60    1.655E-01, -4.342E-02,  9.853E-01         F               0         Tower Z orientation angle, node 9, rad
         61    9.861E-01,  1.521E-02, -1.653E-01         F               0         Tower X orientation angle, node 10, rad
         62   -7.799E-03,  9.989E-01,  4.540E-02         F               0         Tower Y orientation angle, node 10, rad
         63    1.658E-01, -4.348E-02,  9.852E-01         F               0         Tower Z orientation angle, node 10, rad
         64    9.861E-01,  1.522E-02, -1.655E-01         F               0         Tower X orientation angle, node 11, rad
         65   -7.793E-03,  9.989E-01,  4.543E-02         F               0         Tower Y orientation angle, node 11, rad
         66    1.660E-01, -4.351E-02,  9.852E-01         F               0         Tower Z orientation angle, node 11, rad
         67   -7.765E-04                                 F               0         Tower X translation velocity, node 1, m/s
         68   -1.674E-02                                 F               0         Tower Y translation velocity, node 1, m/s
         69    1.363E-04                                 F               0         Tower Z translation velocity, node 1, m/s
         70   -9.449E-04                                 F               0         Tower X translation velocity, node 2, m/s
         71   -2.856E-02                                 F               0         Tower Y translation velocity, node 2, m/s
         72   -3.373E-04                                 F               0         Tower Z translation velocity, node 2, m/s
         73   -1.066E-03                                 F               0         Tower X translation velocity, node 3, m/s
         74   -4.058E-02                                 F               0         Tower Y translation velocity, node 3, m/s
         75   -8.316E-04                                 F               0         Tower Z translation velocity, node 3, m/s
         76   -1.157E-03                                 F               0         Tower X translation velocity, node 4, m/s
         77   -5.277E-02                                 F               0         Tower Y translation velocity, node 4, m/s
         78   -1.342E-03                                 F               0         Tower Z translation velocity, node 4, m/s
         79   -1.225E-03                                 F               0         Tower X translation velocity, node 5, m/s
         80   -6.510E-02                                 F               0         Tower Y translation velocity, node 5, m/s
         81   -1.865E-03                                 F               0         Tower Z translation velocity, node 5, m/s
         82   -1.280E-03                                 F               0         Tower X translation velocity, node 6, m/s
         83   -7.756E-02                                 F               0         Tower Y translation velocity, node 6, m/s
         84   -2.399E-03                                 F               0         Tower Z translation velocity, node 6, m/s
         85   -1.328E-03                                 F               0         Tower X translation velocity, node 7, m/s
         86   -9.012E-02                                 F               0         Tower Y translation velocity, node 7, m/s
         87   -2.940E-03                                 F               0         Tower Z translation velocity, node 7, m/s
         88   -1.375E-03                                 F               0         Tower X translation velocity, node 8, m/s
         89   -1.028E-01                                 F               0         Tower Y translation velocity, node 8, m/s
         90   -3.487E-03                                 F               0         Tower Z translation velocity, node 8, m/s
         91   -1.424E-03                                 F               0         Tower X translation velocity, node 9, m/s
         92   -1.155E-01                                 F               0         Tower Y translation velocity, node 9, m/s
         93   -4.039E-03                                 F               0         Tower Z translation velocity, node 9, m/s
         94   -1.476E-03                                 F               0         Tower X translation velocity, node 10, m/s
         95   -1.282E-01                                 F               0         Tower Y translation velocity, node 10, m/s
         96   -4.593E-03                                 F               0         Tower Z translation velocity, node 10, m/s
         97   -1.531E-03                                 F               0         Tower X translation velocity, node 11, m/s
         98   -1.410E-01                                 F               0         Tower Y translation velocity, node 11, m/s
         99   -5.148E-03                                 F               0         Tower Z translation velocity, node 11, m/s
        100    3.658E+01                                 F               0         Hub X translation displacement, node 1, m
        101   -6.770E+00                                 F               0         Hub Y translation displacement, node 1, m
        102   -4.891E-01                                 F               0         Hub Z translation displacement, node 1, m
        103    9.633E-01,  1.968E-02, -2.675E-01         F               0         Hub X orientation angle, node 1, rad
        104    2.580E-01, -3.419E-01,  9.037E-01         F               0         Hub Y orientation angle, node 1, rad
        105   -7.367E-02, -9.395E-01, -3.344E-01         F               0         Hub Z orientation angle, node 1, rad
        106    1.004E+00                                 F               0         Hub X rotation velocity, node 1, rad/s
        107    2.050E-02                                 F               0         Hub Y rotation velocity, node 1, rad/s
        108   -2.787E-01                                 F               0         Hub Z rotation velocity, node 1, rad/s
        109    9.553E-01,  2.982E-02, -2.942E-01         F               0         Blade root 1 X orientation angle, node 1, rad
        110    2.864E-01, -3.411E-01,  8.953E-01         F               0         Blade root 1 Y orientation angle, node 1, rad
        111   -7.367E-02, -9.395E-01, -3.344E-01         F               0         Blade root 1 Z orientation angle, node 1, rad
        112    9.686E-01,  3.874E-02, -2.454E-01         F               0         Blade root 2 X orientation angle, node 1, rad
        113   -1.641E-01, -6.419E-01, -7.490E-01         F               0         Blade root 2 Y orientation angle, node 1, rad
        114   -1.866E-01,  7.658E-01, -6.154E-01         F               0         Blade root 2 Z orientation angle, node 1, rad
        115    9.649E-01, -9.534E-03, -2.626E-01         F               0         Blade root 3 X orientation angle, node 1, rad
        116   -3.657E-02,  9.847E-01, -1.701E-01         F               0         Blade root 3 Y orientation angle, node 1, rad
        117    2.602E-01,  1.737E-01,  9.498E-01         F               0         Blade root 3 Z orientation angle, node 1, rad
        118    3.559E+01                                 F               0         Blade 1 X translation displacement, node 1, m
        119   -1.198E+01                                 F               0         Blade 1 Y translation displacement, node 1, m
        120   -7.851E+00                                 F               0         Blade 1 Z translation displacement, node 1, m
        121    3.535E+01                                 F               0         Blade 1 X translation displacement, node 2, m
        122   -1.323E+01                                 F               0         Blade 1 Y translation displacement, node 2, m
        123   -9.625E+00                                 F               0         Blade 1 Z translation displacement, node 2, m
        124    3.212E+01                                 F               0         Blade 1 X translation displacement, node 3, m
        125   -3.028E+01                                 F               0         Blade 1 Y translation displacement, node 3, m
        126   -3.375E+01                                 F               0         Blade 1 Z translation displacement, node 3, m
        127    3.143E+01                                 F               0         Blade 1 X translation displacement, node 4, m
        128   -3.392E+01                                 F               0         Blade 1 Y translation displacement, node 4, m
        129   -3.889E+01                                 F               0         Blade 1 Z translation displacement, node 4, m
        130    3.074E+01                                 F               0         Blade 1 X translation displacement, node 5, m
        131   -3.755E+01                                 F               0         Blade 1 Y translation displacement, node 5, m
        132   -4.403E+01                                 F               0         Blade 1 Z translation displacement, node 5, m
        133    3.005E+01                                 F               0         Blade 1 X translation displacement, node 6, m
        134   -4.119E+01                                 F               0         Blade 1 Y translation displacement, node 6, m
        135   -4.917E+01                                 F               0         Blade 1 Z translation displacement, node 6, m
        136    2.936E+01                                 F               0         Blade 1 X translation displacement, node 7, m
        137   -4.482E+01                                 F               0         Blade 1 Y translation displacement, node 7, m
        138   -5.431E+01                                 F               0         Blade 1 Z translation displacement, node 7, m
        139    2.867E+01                                 F               0         Blade 1 X translation displacement, node 8, m
        140   -4.845E+01                                 F               0         Blade 1 Y translation displacement, node 8, m
        141   -5.945E+01                                 F               0         Blade 1 Z translation displacement, node 8, m
        142    2.798E+01                                 F               0         Blade 1 X translation displacement, node 9, m
        143   -5.209E+01                                 F               0         Blade 1 Y translation displacement, node 9, m
        144   -6.459E+01                                 F               0         Blade 1 Z translation displacement, node 9, m
        145    2.729E+01                                 F               0         Blade 1 X translation displacement, node 10, m
        146   -5.572E+01                                 F               0         Blade 1 Y translation displacement, node 10, m
        147   -6.973E+01                                 F               0         Blade 1 Z translation displacement, node 10, m
        148    2.660E+01                                 F               0         Blade 1 X translation displacement, node 11, m
        149   -5.936E+01                                 F               0         Blade 1 Y translation displacement, node 11, m
        150   -7.487E+01                                 F               0         Blade 1 Z translation displacement, node 11, m
        151    2.591E+01                                 F               0         Blade 1 X translation displacement, node 12, m
        152   -6.299E+01                                 F               0         Blade 1 Y translation displacement, node 12, m
        153   -8.001E+01                                 F               0         Blade 1 Z translation displacement, node 12, m
        154    2.522E+01                                 F               0         Blade 1 X translation displacement, node 13, m
        155   -6.662E+01                                 F               0         Blade 1 Y translation displacement, node 13, m
        156   -8.515E+01                                 F               0         Blade 1 Z translation displacement, node 13, m
        157    2.454E+01                                 F               0         Blade 1 X translation displacement, node 14, m
        158   -7.026E+01                                 F               0         Blade 1 Y translation displacement, node 14, m
        159   -9.029E+01                                 F               0         Blade 1 Z translation displacement, node 14, m
        160    2.385E+01                                 F               0         Blade 1 X translation displacement, node 15, m
        161   -7.389E+01                                 F               0         Blade 1 Y translation displacement, node 15, m
        162   -9.543E+01                                 F               0         Blade 1 Z translation displacement, node 15, m
        163    2.316E+01                                 F               0         Blade 1 X translation displacement, node 16, m
        164   -7.753E+01                                 F               0         Blade 1 Y translation displacement, node 16, m
        165   -1.006E+02                                 F               0         Blade 1 Z translation displacement, node 16, m
        166    2.247E+01                                 F               0         Blade 1 X translation displacement, node 17, m
        167   -8.116E+01                                 F               0         Blade 1 Y translation displacement, node 17, m
        168   -1.057E+02                                 F               0         Blade 1 Z translation displacement, node 17, m
        169    2.178E+01                                 F               0         Blade 1 X translation displacement, node 18, m
        170   -8.479E+01                                 F               0         Blade 1 Y translation displacement, node 18, m
        171   -1.108E+02                                 F               0         Blade 1 Z translation displacement, node 18, m
        172    2.109E+01                                 F               0         Blade 1 X translation displacement, node 19, m
        173   -8.843E+01                                 F               0         Blade 1 Y translation displacement, node 19, m
        174   -1.160E+02                                 F               0         Blade 1 Z translation displacement, node 19, m
        175    2.040E+01                                 F               0         Blade 1 X translation displacement, node 20, m
        176   -9.206E+01                                 F               0         Blade 1 Y translation displacement, node 20, m
        177   -1.211E+02                                 F               0         Blade 1 Z translation displacement, node 20, m
        178    1.971E+01                                 F               0         Blade 1 X translation displacement, node 21, m
        179   -9.569E+01                                 F               0         Blade 1 Y translation displacement, node 21, m
        180   -1.263E+02                                 F               0         Blade 1 Z translation displacement, node 21, m
        181    1.902E+01                                 F               0         Blade 1 X translation displacement, node 22, m
        182   -9.933E+01                                 F               0         Blade 1 Y translation displacement, node 22, m
        183   -1.314E+02                                 F               0         Blade 1 Z translation displacement, node 22, m
        184    1.833E+01                                 F               0         Blade 1 X translation displacement, node 23, m
        185   -1.030E+02                                 F               0         Blade 1 Y translation displacement, node 23, m
        186   -1.365E+02                                 F               0         Blade 1 Z translation displacement, node 23, m
        187    1.764E+01                                 F               0         Blade 1 X translation displacement, node 24, m
        188   -1.066E+02                                 F               0         Blade 1 Y translation displacement, node 24, m
        189   -1.417E+02                                 F               0         Blade 1 Z translation displacement, node 24, m
        190    1.695E+01                                 F               0         Blade 1 X translation displacement, node 25, m
        191   -1.102E+02                                 F               0         Blade 1 Y translation displacement, node 25, m
        192   -1.468E+02                                 F               0         Blade 1 Z translation displacement, node 25, m
        193    1.626E+01                                 F               0         Blade 1 X translation displacement, node 26, m
        194   -1.139E+02                                 F               0         Blade 1 Y translation displacement, node 26, m
        195   -1.520E+02                                 F               0         Blade 1 Z translation displacement, node 26, m
        196    1.558E+01                                 F               0         Blade 1 X translation displacement, node 27, m
        197   -1.175E+02                                 F               0         Blade 1 Y translation displacement, node 27, m
        198   -1.571E+02                                 F               0         Blade 1 Z translation displacement, node 27, m
        199    1.499E+01                                 F               0         Blade 1 X translation displacement, node 28, m
        200   -1.206E+02                                 F               0         Blade 1 Y translation displacement, node 28, m
        201   -1.615E+02                                 F               0         Blade 1 Z translation displacement, node 28, m
        202    7.196E-01,  1.821E-01, -6.701E-01         F               0         Blade 1 X orientation angle, node 1, rad
        203    6.905E-01, -2.900E-01,  6.626E-01         F               0         Blade 1 Y orientation angle, node 1, rad
        204   -7.367E-02, -9.395E-01, -3.344E-01         F               0         Blade 1 Z orientation angle, node 1, rad
        205    7.196E-01,  1.821E-01, -6.701E-01         F               0         Blade 1 X orientation angle, node 2, rad
        206    6.905E-01, -2.900E-01,  6.626E-01         F               0         Blade 1 Y orientation angle, node 2, rad
        207   -7.367E-02, -9.395E-01, -3.344E-01         F               0         Blade 1 Z orientation angle, node 2, rad
        208    8.627E-01,  1.082E-01, -4.940E-01         F               0         Blade 1 X orientation angle, node 3, rad
        209    5.003E-01, -3.249E-01,  8.026E-01         F               0         Blade 1 Y orientation angle, node 3, rad
        210   -7.367E-02, -9.395E-01, -3.344E-01         F               0         Blade 1 Z orientation angle, node 3, rad
        211    8.831E-01,  9.436E-02, -4.597E-01         F               0         Blade 1 X orientation angle, node 4, rad
        212    4.634E-01, -3.292E-01,  8.227E-01         F               0         Blade 1 Y orientation angle, node 4, rad
        213   -7.367E-02, -9.395E-01, -3.344E-01         F               0         Blade 1 Z orientation angle, node 4, rad
        214    8.979E-01,  8.339E-02, -4.321E-01         F               0         Blade 1 X orientation angle, node 5, rad
        215    4.339E-01, -3.321E-01,  8.375E-01         F               0         Blade 1 Y orientation angle, node 5, rad
        216   -7.367E-02, -9.395E-01, -3.344E-01         F               0         Blade 1 Z orientation angle, node 5, rad
        217    9.091E-01,  7.455E-02, -4.098E-01         F               0         Blade 1 X orientation angle, node 6, rad
        218    4.099E-01, -3.342E-01,  8.487E-01         F               0         Blade 1 Y orientation angle, node 6, rad
        219   -7.367E-02, -9.395E-01, -3.344E-01         F               0         Blade 1 Z orientation angle, node 6, rad
        220    9.179E-01,  6.724E-02, -3.912E-01         F               0         Blade 1 X orientation angle, node 7, rad
        221    3.900E-01, -3.358E-01,  8.574E-01         F               0         Blade 1 Y orientation angle, node 7, rad
        222   -7.367E-02, -9.395E-01, -3.344E-01         F               0         Blade 1 Z orientation angle, node 7, rad
        223    9.248E-01,  6.114E-02, -3.755E-01         F               0         Blade 1 X orientation angle, node 8, rad
        224    3.733E-01, -3.369E-01,  8.644E-01         F               0         Blade 1 Y orientation angle, node 8, rad
        225   -7.367E-02, -9.395E-01, -3.344E-01         F               0         Blade 1 Z orientation angle, node 8, rad
        226    9.304E-01,  5.596E-02, -3.622E-01         F               0         Blade 1 X orientation angle, node 9, rad
        227    3.590E-01, -3.378E-01,  8.700E-01         F               0         Blade 1 Y orientation angle, node 9, rad