
Linearized model: Predictions were generated on 19-Dec-2023 at 09:27:32 using OpenFAST, compiled as a 64-bit application using single precision at commit v3.5.1
 linked with  NWTC Subroutine Library; ElastoDyn; InflowWind; AeroDyn; ServoDyn; HydroDyn; MoorDyn (v2.0.0, 2023-09-18)

Description from the FAST input file: CCT-9 Campign 4 model. Input files to be run with OpenFAST 3.5.0. GitHub branch from Lu Wang (https://github.com/luwang00/openfast/tree/dev) compiled on March 7, 2023.

Simulation information:
   Simulation time:                  1006.7250 s
   Rotor Speed:                         1.0408 rad/s
   Azimuth:                             5.8455 rad
   Wind Speed:                         12.0000 m/s
   Number of continuous states:        22
   Number of discrete states:           0
   Number of constraint states:         0
   Number of inputs:                 4033
   Number of outputs:                  49
   Jacobians included in this file?    No

Order of continuous states:
   Row/Column Operating Point                     Rotating Frame? Derivative Order Description
   ---------- ---------------                     --------------- ---------------- -----------
          1    1.230E+01                                 F               2         ED Platform horizontal surge translation DOF (internal DOF index = DOF_Sg), m
          2   -2.050E-01                                 F               2         ED Platform horizontal sway translation DOF (internal DOF index = DOF_Sw), m
          3   -1.844E-01                                 F               2         ED Platform vertical heave translation DOF (internal DOF index = DOF_Hv), m
          4    4.094E-02                                 F               2         ED Platform roll tilt rotation DOF (internal DOF index = DOF_R), rad
          5    1.551E-01                                 F               2         ED Platform pitch tilt rotation DOF (internal DOF index = DOF_P), rad
          6    1.217E-02                                 F               2         ED Platform yaw rotation DOF (internal DOF index = DOF_Y), rad
          7    1.076E+00                                 F               2         ED 1st tower fore-aft bending mode DOF (internal DOF index = DOF_TFA1), m
          8    1.545E-01                                 F               2         ED 1st tower side-to-side bending mode DOF (internal DOF index = DOF_TSS1), m
          9    1.602E-03                                 F               2         ED 2nd tower fore-aft bending mode DOF (internal DOF index = DOF_TFA2), m
         10    7.256E-05                                 F               2         ED 2nd tower side-to-side bending mode DOF (internal DOF index = DOF_TSS2), m
         11    4.275E+00                                 F               2         ED Variable speed generator DOF (internal DOF index = DOF_GeAz), rad
         12   -6.820E-04                                 F               2         ED First time derivative of Platform horizontal surge translation DOF (internal DOF index = DOF_Sg), m/s
         13    2.335E-04                                 F               2         ED First time derivative of Platform horizontal sway translation DOF (internal DOF index = DOF_Sw), m/s
         14    3.577E-03                                 F               2         ED First time derivative of Platform vertical heave translation DOF (internal DOF index = DOF_Hv), m/s
         15    9.729E-04                                 F               2         ED First time derivative of Platform roll tilt rotation DOF (internal DOF index = DOF_R), rad/s
         16    6.730E-06                                 F               2         ED First time derivative of Platform pitch tilt rotation DOF (internal DOF index = DOF_P), rad/s
         17   -3.076E-04                                 F               2         ED First time derivative of Platform yaw rotation DOF (internal DOF index = DOF_Y), rad/s
         18    1.231E-03                                 F               2         ED First time derivative of 1st tower fore-aft bending mode DOF (internal DOF index = DOF_TFA1), m/s
         19    5.732E-03                                 F               2         ED First time derivative of 1st tower side-to-side bending mode DOF (internal DOF index = DOF_TSS1), m/s
         20   -4.906E-06                                 F               2         ED First time derivative of 2nd tower fore-aft bending mode DOF (internal DOF index = DOF_TFA2), m/s
         21    6.279E-07                                 F               2         ED First time derivative of 2nd tower side-to-side bending mode DOF (internal DOF index = DOF_TSS2), m/s
         22    1.041E+00                                 F               2         ED First time derivative of Variable speed generator DOF (internal DOF index = DOF_GeAz), rad/s

Order of continuous state derivatives:
   Row/Column Operating Point                     Rotating Frame? Derivative Order Description
   ---------- ---------------                     --------------- ---------------- -----------
          1   -6.820E-04                                 F               2         First time derivative of ED Platform horizontal surge translation DOF (internal DOF index = DOF_Sg), m/s
          2    2.335E-04                                 F               2         First time derivative of ED Platform horizontal sway translation DOF (internal DOF index = DOF_Sw), m/s
          3    3.577E-03                                 F               2         First time derivative of ED Platform vertical heave translation DOF (internal DOF index = DOF_Hv), m/s
          4    9.729E-04                                 F               2         First time derivative of ED Platform roll tilt rotation DOF (internal DOF index = DOF_R), rad/s
          5    6.730E-06                                 F               2         First time derivative of ED Platform pitch tilt rotation DOF (internal DOF index = DOF_P), rad/s
          6   -3.076E-04                                 F               2         First time derivative of ED Platform yaw rotation DOF (internal DOF index = DOF_Y), rad/s
          7    1.231E-03                                 F               2         First time derivative of ED 1st tower fore-aft bending mode DOF (internal DOF index = DOF_TFA1), m/s
          8    5.732E-03                                 F               2         First time derivative of ED 1st tower side-to-side bending mode DOF (internal DOF index = DOF_TSS1), m/s
          9   -4.906E-06                                 F               2         First time derivative of ED 2nd tower fore-aft bending mode DOF (internal DOF index = DOF_TFA2), m/s
         10    6.279E-07                                 F               2         First time derivative of ED 2nd tower side-to-side bending mode DOF (internal DOF index = DOF_TSS2), m/s
         11    1.041E+00                                 F               2         First time derivative of ED Variable speed generator DOF (internal DOF index = DOF_GeAz), rad/s
         12   -4.186E-04                                 F               2         First time derivative of ED First time derivative of Platform horizontal surge translation DOF (internal DOF index = DOF_Sg), m/s/s
         13    6.956E-04                                 F               2         First time derivative of ED First time derivative of Platform horizontal sway translation DOF (internal DOF index = DOF_Sw), m/s/s
         14   -1.102E-03                                 F               2         First time derivative of ED First time derivative of Platform vertical heave translation DOF (internal DOF index = DOF_Hv), m/s/s
         15   -6.076E-06                                 F               2         First time derivative of ED First time derivative of Platform roll tilt rotation DOF (internal DOF index = DOF_R), rad/s/s
         16   -3.003E-05                                 F               2         First time derivative of ED First time derivative of Platform pitch tilt rotation DOF (internal DOF index = DOF_P), rad/s/s
         17    1.497E-05                                 F               2         First time derivative of ED First time derivative of Platform yaw rotation DOF (internal DOF index = DOF_Y), rad/s/s
         18    5.753E-03                                 F               2         First time derivative of ED First time derivative of 1st tower fore-aft bending mode DOF (internal DOF index = DOF_TFA1), m/s/s
         19    1.744E-03                                 F               2         First time derivative of ED First time derivative of 1st tower side-to-side bending mode DOF (internal DOF index = DOF_TSS1), m/s/s
         20    3.239E-05                                 F               2         First time derivative of ED First time derivative of 2nd tower fore-aft bending mode DOF (internal DOF index = DOF_TFA2), m/s/s
         21   -1.873E-07                                 F               2         First time derivative of ED First time derivative of 2nd tower side-to-side bending mode DOF (internal DOF index = DOF_TSS2), m/s/s
         22   -1.516E-04                                 F               2         First time derivative of ED First time derivative of Variable speed generator DOF (internal DOF index = DOF_GeAz), rad/s/s

Order of inputs:
     Column   Operating Point                     Rotating Frame? Derivative Order Description
   ---------- ---------------                     --------------- ---------------- -----------
          1   -1.080E+01                                 F               0         IfW X-component position of node 1 (hub), m
          2    0.000E+00                                 F               0         IfW Y-component position of node 1 (hub), m
          3    1.497E+02                                 F               0         IfW Z-component position of node 1 (hub), m
          4    2.710E+01                                 F               0         IfW X-component position of node 2 (blade 1, node 1), m
          5   -4.291E+00                                 F               0         IfW Y-component position of node 2 (blade 1, node 1), m
          6    1.542E+02                                 F               0         IfW Z-component position of node 2 (blade 1, node 1), m
          7    2.742E+01                                 F               0         IfW X-component position of node 3 (blade 1, node 2), m
          8   -3.773E+00                                 F               0         IfW Y-component position of node 3 (blade 1, node 2), m
          9    1.554E+02                                 F               0         IfW Z-component position of node 3 (blade 1, node 2), m
         10    3.176E+01                                 F               0         IfW X-component position of node 4 (blade 1, node 3), m
         11    3.267E+00                                 F               0         IfW Y-component position of node 4 (blade 1, node 3), m
         12    1.715E+02                                 F               0         IfW Z-component position of node 4 (blade 1, node 3), m
         13    3.269E+01                                 F               0         IfW X-component position of node 5 (blade 1, node 4), m
         14    4.767E+00                                 F               0         IfW Y-component position of node 5 (blade 1, node 4), m
         15    1.750E+02                                 F               0         IfW Z-component position of node 5 (blade 1, node 4), m
         16    3.362E+01                                 F               0         IfW X-component position of node 6 (blade 1, node 5), m
         17    6.267E+00                                 F               0         IfW Y-component position of node 6 (blade 1, node 5), m
         18    1.784E+02                                 F               0         IfW Z-component position of node 6 (blade 1, node 5), m
         19    3.454E+01                                 F               0         IfW X-component position of node 7 (blade 1, node 6), m
         20    7.767E+00                                 F               0         IfW Y-component position of node 7 (blade 1, node 6), m
         21    1.819E+02                                 F               0         IfW Z-component position of node 7 (blade 1, node 6), m
         22    3.547E+01                                 F               0         IfW X-component position of node 8 (blade 1, node 7), m
         23    9.267E+00                                 F               0         IfW Y-component position of node 8 (blade 1, node 7), m
         24    1.853E+02                                 F               0         IfW Z-component position of node 8 (blade 1, node 7), m
         25    3.639E+01                                 F               0         IfW X-component position of node 9 (blade 1, node 8), m
         26    1.077E+01                                 F               0         IfW Y-component position of node 9 (blade 1, node 8), m
         27    1.888E+02                                 F               0         IfW Z-component position of node 9 (blade 1, node 8), m
         28    3.732E+01                                 F               0         IfW X-component position of node 10 (blade 1, node 9), m
         29    1.227E+01                                 F               0         IfW Y-component position of node 10 (blade 1, node 9), m
         30    1.922E+02                                 F               0         IfW Z-component position of node 10 (blade 1, node 9), m
         31    3.824E+01                                 F               0         IfW X-component position of node 11 (blade 1, node 10), m
         32    1.377E+01                                 F               0         IfW Y-component position of node 11 (blade 1, node 10), m
         33    1.956E+02                                 F               0         IfW Z-component position of node 11 (blade 1, node 10), m
         34    3.917E+01                                 F               0         IfW X-component position of node 12 (blade 1, node 11), m
         35    1.527E+01                                 F               0         IfW Y-component position of node 12 (blade 1, node 11), m
         36    1.991E+02                                 F               0         IfW Z-component position of node 12 (blade 1, node 11), m
         37    4.009E+01                                 F               0         IfW X-component position of node 13 (blade 1, node 12), m
         38    1.677E+01                                 F               0         IfW Y-component position of node 13 (blade 1, node 12), m
         39    2.025E+02                                 F               0         IfW Z-component position of node 13 (blade 1, node 12), m
         40    4.102E+01                                 F               0         IfW X-component position of node 14 (blade 1, node 13), m
         41    1.827E+01                                 F               0         IfW Y-component position of node 14 (blade 1, node 13), m
         42    2.060E+02                                 F               0         IfW Z-component position of node 14 (blade 1, node 13), m
         43    4.194E+01                                 F               0         IfW X-component position of node 15 (blade 1, node 14), m
         44    1.977E+01                                 F               0         IfW Y-component position of node 15 (blade 1, node 14), m
         45    2.094E+02                                 F               0         IfW Z-component position of node 15 (blade 1, node 14), m
         46    4.287E+01                                 F               0         IfW X-component position of node 16 (blade 1, node 15), m
         47    2.127E+01                                 F               0         IfW Y-component position of node 16 (blade 1, node 15), m
         48    2.129E+02                                 F               0         IfW Z-component position of node 16 (blade 1, node 15), m
         49    4.379E+01                                 F               0         IfW X-component position of node 17 (blade 1, node 16), m
         50    2.277E+01                                 F               0         IfW Y-component position of node 17 (blade 1, node 16), m
         51    2.163E+02                                 F               0         IfW Z-component position of node 17 (blade 1, node 16), m
         52    4.472E+01                                 F               0         IfW X-component position of node 18 (blade 1, node 17), m
         53    2.427E+01                                 F               0         IfW Y-component position of node 18 (blade 1, node 17), m
         54    2.197E+02                                 F               0         IfW Z-component position of node 18 (blade 1, node 17), m
         55    4.564E+01                                 F               0         IfW X-component position of node 19 (blade 1, node 18), m
         56    2.577E+01                                 F               0         IfW Y-component position of node 19 (blade 1, node 18), m
         57    2.232E+02                                 F               0         IfW Z-component position of node 19 (blade 1, node 18), m
         58    4.657E+01                                 F               0         IfW X-component position of node 20 (blade 1, node 19), m
         59    2.727E+01                                 F               0         IfW Y-component position of node 20 (blade 1, node 19), m
         60    2.266E+02                                 F               0         IfW Z-component position of node 20 (blade 1, node 19), m
         61    4.749E+01                                 F               0         IfW X-component position of node 21 (blade 1, node 20), m
         62    2.877E+01                                 F               0         IfW Y-component position of node 21 (blade 1, node 20), m
         63    2.301E+02                                 F               0         IfW Z-component position of node 21 (blade 1, node 20), m
         64    4.842E+01                                 F               0         IfW X-component position of node 22 (blade 1, node 21), m
         65    3.027E+01                                 F               0         IfW Y-component position of node 22 (blade 1, node 21), m
         66    2.335E+02                                 F               0         IfW Z-component position of node 22 (blade 1, node 21), m
         67    4.934E+01                                 F               0         IfW X-component position of node 23 (blade 1, node 22), m
         68    3.177E+01                                 F               0         IfW Y-component position of node 23 (blade 1, node 22), m
         69    2.370E+02                                 F               0         IfW Z-component position of node 23 (blade 1, node 22), m
         70    5.027E+01                                 F               0         IfW X-component position of node 24 (blade 1, node 23), m
         71    3.327E+01                                 F               0         IfW Y-component position of node 24 (blade 1, node 23), m
         72    2.404E+02                                 F               0         IfW Z-component position of node 24 (blade 1, node 23), m
         73    5.120E+01                                 F               0         IfW X-component position of node 25 (blade 1, node 24), m
         74    3.477E+01                                 F               0         IfW Y-component position of node 25 (blade 1, node 24), m
         75    2.438E+02                                 F               0         IfW Z-component position of node 25 (blade 1, node 24), m
         76    5.212E+01                                 F               0         IfW X-component position of node 26 (blade 1, node 25), m
         77    3.627E+01                                 F               0         IfW Y-component position of node 26 (blade 1, node 25), m
         78    2.473E+02                                 F               0         IfW Z-component position of node 26 (blade 1, node 25), m
         79    5.305E+01                                 F               0         IfW X-component position of node 27 (blade 1, node 26), m
         80    3.777E+01                                 F               0         IfW Y-component position of node 27 (blade 1, node 26), m
         81    2.507E+02                                 F               0         IfW Z-component position of node 27 (blade 1, node 26), m
         82    5.397E+01                                 F               0         IfW X-component position of node 28 (blade 1, node 27), m
         83    3.927E+01                                 F               0         IfW Y-component position of node 28 (blade 1, node 27), m
         84    2.542E+02                                 F               0         IfW Z-component position of node 28 (blade 1, node 27), m
         85    5.476E+01                                 F               0         IfW X-component position of node 29 (blade 1, node 28), m
         86    4.054E+01                                 F               0         IfW Y-component position of node 29 (blade 1, node 28), m
         87    2.571E+02                                 F               0         IfW Z-component position of node 29 (blade 1, node 28), m
         88    2.570E+01                                 F               0         IfW X-component position of node 30 (blade 2, node 1), m
         89   -1.193E+01                                 F               0         IfW Y-component position of node 30 (blade 2, node 1), m
         90    1.486E+02                                 F               0         IfW Z-component position of node 30 (blade 2, node 1), m
         91    2.568E+01                                 F               0         IfW X-component position of node 31 (blade 2, node 2), m
         92   -1.326E+01                                 F               0         IfW Y-component position of node 31 (blade 2, node 2), m
         93    1.484E+02                                 F               0         IfW Z-component position of node 31 (blade 2, node 2), m
         94    2.542E+01                                 F               0         IfW X-component position of node 32 (blade 2, node 3), m
         95   -3.127E+01                                 F               0         IfW Y-component position of node 32 (blade 2, node 3), m
         96    1.461E+02                                 F               0         IfW Z-component position of node 32 (blade 2, node 3), m
         97    2.536E+01                                 F               0         IfW X-component position of node 33 (blade 2, node 4), m
         98   -3.510E+01                                 F               0         IfW Y-component position of node 33 (blade 2, node 4), m
         99    1.456E+02                                 F               0         IfW Z-component position of node 33 (blade 2, node 4), m
        100    2.530E+01                                 F               0         IfW X-component position of node 34 (blade 2, node 5), m
        101   -3.894E+01                                 F               0         IfW Y-component position of node 34 (blade 2, node 5), m
        102    1.451E+02                                 F               0         IfW Z-component position of node 34 (blade 2, node 5), m
        103    2.525E+01                                 F               0         IfW X-component position of node 35 (blade 2, node 6), m
        104   -4.278E+01                                 F               0         IfW Y-component position of node 35 (blade 2, node 6), m
        105    1.447E+02                                 F               0         IfW Z-component position of node 35 (blade 2, node 6), m
        106    2.519E+01                                 F               0         IfW X-component position of node 36 (blade 2, node 7), m
        107   -4.661E+01                                 F               0         IfW Y-component position of node 36 (blade 2, node 7), m
        108    1.442E+02                                 F               0         IfW Z-component position of node 36 (blade 2, node 7), m
        109    2.514E+01                                 F               0         IfW X-component position of node 37 (blade 2, node 8), m
        110   -5.045E+01                                 F               0         IfW Y-component position of node 37 (blade 2, node 8), m
        111    1.437E+02                                 F               0         IfW Z-component position of node 37 (blade 2, node 8), m
        112    2.508E+01                                 F               0         IfW X-component position of node 38 (blade 2, node 9), m
        113   -5.429E+01                                 F               0         IfW Y-component position of node 38 (blade 2, node 9), m
        114    1.432E+02                                 F               0         IfW Z-component position of node 38 (blade 2, node 9), m
        115    2.503E+01                                 F               0         IfW X-component position of node 39 (blade 2, node 10), m
        116   -5.812E+01                                 F               0         IfW Y-component position of node 39 (blade 2, node 10), m
        117    1.427E+02                                 F               0         IfW Z-component position of node 39 (blade 2, node 10), m
        118    2.497E+01                                 F               0         IfW X-component position of node 40 (blade 2, node 11), m
        119   -6.196E+01                                 F               0         IfW Y-component position of node 40 (blade 2, node 11), m
        120    1.422E+02                                 F               0         IfW Z-component position of node 40 (blade 2, node 11), m
        121    2.491E+01                                 F               0         IfW X-component position of node 41 (blade 2, node 12), m
        122   -6.580E+01                                 F               0         IfW Y-component position of node 41 (blade 2, node 12), m
        123    1.417E+02                                 F               0         IfW Z-component position of node 41 (blade 2, node 12), m
        124    2.486E+01                                 F               0         IfW X-component position of node 42 (blade 2, node 13), m
        125   -6.963E+01                                 F               0         IfW Y-component position of node 42 (blade 2, node 13), m
        126    1.413E+02                                 F               0         IfW Z-component position of node 42 (blade 2, node 13), m
        127    2.480E+01                                 F               0         IfW X-component position of node 43 (blade 2, node 14), m
        128   -7.347E+01                                 F               0         IfW Y-component position of node 43 (blade 2, node 14), m
        129    1.408E+02                                 F               0         IfW Z-component position of node 43 (blade 2, node 14), m
        130    2.475E+01                                 F               0         IfW X-component position of node 44 (blade 2, node 15), m
        131   -7.731E+01                                 F               0         IfW Y-component position of node 44 (blade 2, node 15), m
        132    1.403E+02                                 F               0         IfW Z-component position of node 44 (blade 2, node 15), m
        133    2.469E+01                                 F               0         IfW X-component position of node 45 (blade 2, node 16), m
        134   -8.114E+01                                 F               0         IfW Y-component position of node 45 (blade 2, node 16), m
        135    1.398E+02                                 F               0         IfW Z-component position of node 45 (blade 2, node 16), m
        136    2.463E+01                                 F               0         IfW X-component position of node 46 (blade 2, node 17), m
        137   -8.498E+01                                 F               0         IfW Y-component position of node 46 (blade 2, node 17), m
        138    1.393E+02                                 F               0         IfW Z-component position of node 46 (blade 2, node 17), m
        139    2.458E+01                                 F               0         IfW X-component position of node 47 (blade 2, node 18), m
        140   -8.882E+01                                 F               0         IfW Y-component position of node 47 (blade 2, node 18), m
        141    1.388E+02                                 F               0         IfW Z-component position of node 47 (blade 2, node 18), m
        142    2.452E+01                                 F               0         IfW X-component position of node 48 (blade 2, node 19), m
        143   -9.265E+01                                 F               0         IfW Y-component position of node 48 (blade 2, node 19), m
        144    1.383E+02                                 F               0         IfW Z-component position of node 48 (blade 2, node 19), m