
Linearized model: Predictions were generated on 19-Dec-2023 at 09:27:32 using OpenFAST, compiled as a 64-bit application using single precision at commit v3.5.1
 linked with  NWTC Subroutine Library; ElastoDyn; InflowWind; AeroDyn; ServoDyn; HydroDyn; MoorDyn (v2.0.0, 2023-09-18)

Description from the FAST input file: CCT-9 Campign 4 model. Input files to be run with OpenFAST 3.5.0. GitHub branch from Lu Wang (https://github.com/luwang00/openfast/tree/dev) compiled on March 7, 2023.

Simulation information:
   Simulation time:                  1006.7250 s
   Rotor Speed:                         1.0408 rad/s
   Azimuth:                             5.8455 rad
   Wind Speed:                         12.0000 m/s
   Number of continuous states:        22
   Number of discrete states:           0
   Number of constraint states:         0
   Number of inputs:                 1890
   Number of outputs:                  38
   Jacobians included in this file?    No

Order of continuous states:
   Row/Column Operating Point                     Rotating Frame? Derivative Order Description
   ---------- ---------------                     --------------- ---------------- -----------
          1    1.230E+01                                 F               2         Platform horizontal surge translation DOF (internal DOF index = DOF_Sg), m
          2   -2.050E-01                                 F               2         Platform horizontal sway translation DOF (internal DOF index = DOF_Sw), m
          3   -1.844E-01                                 F               2         Platform vertical heave translation DOF (internal DOF index = DOF_Hv), m
          4    4.094E-02                                 F               2         Platform roll tilt rotation DOF (internal DOF index = DOF_R), rad
          5    1.551E-01                                 F               2         Platform pitch tilt rotation DOF (internal DOF index = DOF_P), rad
          6    1.217E-02                                 F               2         Platform yaw rotation DOF (internal DOF index = DOF_Y), rad
          7    1.076E+00                                 F               2         1st tower fore-aft bending mode DOF (internal DOF index = DOF_TFA1), m
          8    1.545E-01                                 F               2         1st tower side-to-side bending mode DOF (internal DOF index = DOF_TSS1), m
          9    1.602E-03                                 F               2         2nd tower fore-aft bending mode DOF (internal DOF index = DOF_TFA2), m
         10    7.256E-05                                 F               2         2nd tower side-to-side bending mode DOF (internal DOF index = DOF_TSS2), m
         11    4.275E+00                                 F               2         Variable speed generator DOF (internal DOF index = DOF_GeAz), rad
         12   -6.820E-04                                 F               2         First time derivative of Platform horizontal surge translation DOF (internal DOF index = DOF_Sg), m/s
         13    2.335E-04                                 F               2         First time derivative of Platform horizontal sway translation DOF (internal DOF index = DOF_Sw), m/s
         14    3.577E-03                                 F               2         First time derivative of Platform vertical heave translation DOF (internal DOF index = DOF_Hv), m/s
         15    9.729E-04                                 F               2         First time derivative of Platform roll tilt rotation DOF (internal DOF index = DOF_R), rad/s
         16    6.730E-06                                 F               2         First time derivative of Platform pitch tilt rotation DOF (internal DOF index = DOF_P), rad/s
         17   -3.076E-04                                 F               2         First time derivative of Platform yaw rotation DOF (internal DOF index = DOF_Y), rad/s
         18    1.231E-03                                 F               2         First time derivative of 1st tower fore-aft bending mode DOF (internal DOF index = DOF_TFA1), m/s
         19    5.732E-03                                 F               2         First time derivative of 1st tower side-to-side bending mode DOF (internal DOF index = DOF_TSS1), m/s
         20   -4.906E-06                                 F               2         First time derivative of 2nd tower fore-aft bending mode DOF (internal DOF index = DOF_TFA2), m/s
         21    6.279E-07                                 F               2         First time derivative of 2nd tower side-to-side bending mode DOF (internal DOF index = DOF_TSS2), m/s
         22    1.041E+00                                 F               2         First time derivative of Variable speed generator DOF (internal DOF index = DOF_GeAz), rad/s

Order of continuous state derivatives:
   Row/Column Operating Point                     Rotating Frame? Derivative Order Description
   ---------- ---------------                     --------------- ---------------- -----------
          1   -6.820E-04                                 F               2         First time derivative of Platform horizontal surge translation DOF (internal DOF index = DOF_Sg), m/s
          2    2.335E-04                                 F               2         First time derivative of Platform horizontal sway translation DOF (internal DOF index = DOF_Sw), m/s
          3    3.577E-03                                 F               2         First time derivative of Platform vertical heave translation DOF (internal DOF index = DOF_Hv), m/s
          4    9.729E-04                                 F               2         First time derivative of Platform roll tilt rotation DOF (internal DOF index = DOF_R), rad/s
          5    6.730E-06                                 F               2         First time derivative of Platform pitch tilt rotation DOF (internal DOF index = DOF_P), rad/s
          6   -3.076E-04                                 F               2         First time derivative of Platform yaw rotation DOF (internal DOF index = DOF_Y), rad/s
          7    1.231E-03                                 F               2         First time derivative of 1st tower fore-aft bending mode DOF (internal DOF index = DOF_TFA1), m/s
          8    5.732E-03                                 F               2         First time derivative of 1st tower side-to-side bending mode DOF (internal DOF index = DOF_TSS1), m/s
          9   -4.906E-06                                 F               2         First time derivative of 2nd tower fore-aft bending mode DOF (internal DOF index = DOF_TFA2), m/s
         10    6.279E-07                                 F               2         First time derivative of 2nd tower side-to-side bending mode DOF (internal DOF index = DOF_TSS2), m/s
         11    1.041E+00                                 F               2         First time derivative of Variable speed generator DOF (internal DOF index = DOF_GeAz), rad/s
         12   -4.186E-04                                 F               2         First time derivative of First time derivative of Platform horizontal surge translation DOF (internal DOF index = DOF_Sg), m/s/s
         13    6.956E-04                                 F               2         First time derivative of First time derivative of Platform horizontal sway translation DOF (internal DOF index = DOF_Sw), m/s/s
         14   -1.102E-03                                 F               2         First time derivative of First time derivative of Platform vertical heave translation DOF (internal DOF index = DOF_Hv), m/s/s
         15   -6.076E-06                                 F               2         First time derivative of First time derivative of Platform roll tilt rotation DOF (internal DOF index = DOF_R), rad/s/s
         16   -3.003E-05                                 F               2         First time derivative of First time derivative of Platform pitch tilt rotation DOF (internal DOF index = DOF_P), rad/s/s
         17    1.497E-05                                 F               2         First time derivative of First time derivative of Platform yaw rotation DOF (internal DOF index = DOF_Y), rad/s/s
         18    5.753E-03                                 F               2         First time derivative of First time derivative of 1st tower fore-aft bending mode DOF (internal DOF index = DOF_TFA1), m/s/s
         19    1.744E-03                                 F               2         First time derivative of First time derivative of 1st tower side-to-side bending mode DOF (internal DOF index = DOF_TSS1), m/s/s
         20    3.239E-05                                 F               2         First time derivative of First time derivative of 2nd tower fore-aft bending mode DOF (internal DOF index = DOF_TFA2), m/s/s
         21   -1.873E-07                                 F               2         First time derivative of First time derivative of 2nd tower side-to-side bending mode DOF (internal DOF index = DOF_TSS2), m/s/s
         22   -1.516E-04                                 F               2         First time derivative of First time derivative of Variable speed generator DOF (internal DOF index = DOF_GeAz), rad/s/s

Order of inputs:
     Column   Operating Point                     Rotating Frame? Derivative Order Description
   ---------- ---------------                     --------------- ---------------- -----------
          1    8.475E+01                                 F               0         Blade 1 X force, node 1, N
          2    7.326E+01                                 F               0         Blade 1 Y force, node 1, N
          3   -5.469E+01                                 F               0         Blade 1 Z force, node 1, N
          4    3.881E+02                                 F               0         Blade 1 X force, node 2, N
          5    1.524E+02                                 F               0         Blade 1 Y force, node 2, N
          6   -1.707E+02                                 F               0         Blade 1 Z force, node 2, N
          7    5.304E+02                                 F               0         Blade 1 X force, node 3, N
          8    8.370E+01                                 F               0         Blade 1 Y force, node 3, N
          9   -1.790E+02                                 F               0         Blade 1 Z force, node 3, N
         10    7.140E+02                                 F               0         Blade 1 X force, node 4, N
         11    3.251E+01                                 F               0         Blade 1 Y force, node 4, N
         12   -2.060E+02                                 F               0         Blade 1 Z force, node 4, N
         13    8.975E+02                                 F               0         Blade 1 X force, node 5, N
         14   -1.868E+01                                 F               0         Blade 1 Y force, node 5, N
         15   -2.331E+02                                 F               0         Blade 1 Z force, node 5, N
         16    1.081E+03                                 F               0         Blade 1 X force, node 6, N
         17   -6.986E+01                                 F               0         Blade 1 Y force, node 6, N
         18   -2.601E+02                                 F               0         Blade 1 Z force, node 6, N
         19    1.265E+03                                 F               0         Blade 1 X force, node 7, N
         20   -1.210E+02                                 F               0         Blade 1 Y force, node 7, N
         21   -2.871E+02                                 F               0         Blade 1 Z force, node 7, N
         22    1.448E+03                                 F               0         Blade 1 X force, node 8, N
         23   -1.722E+02                                 F               0         Blade 1 Y force, node 8, N
         24   -3.141E+02                                 F               0         Blade 1 Z force, node 8, N
         25    1.632E+03                                 F               0         Blade 1 X force, node 9, N
         26   -2.234E+02                                 F               0         Blade 1 Y force, node 9, N
         27   -3.412E+02                                 F               0         Blade 1 Z force, node 9, N
         28    1.815E+03                                 F               0         Blade 1 X force, node 10, N
         29   -2.746E+02                                 F               0         Blade 1 Y force, node 10, N
         30   -3.682E+02                                 F               0         Blade 1 Z force, node 10, N
         31    1.999E+03                                 F               0         Blade 1 X force, node 11, N
         32   -3.258E+02                                 F               0         Blade 1 Y force, node 11, N
         33   -3.952E+02                                 F               0         Blade 1 Z force, node 11, N
         34    2.182E+03                                 F               0         Blade 1 X force, node 12, N
         35   -3.770E+02                                 F               0         Blade 1 Y force, node 12, N
         36   -4.222E+02                                 F               0         Blade 1 Z force, node 12, N
         37    2.366E+03                                 F               0         Blade 1 X force, node 13, N
         38   -4.282E+02                                 F               0         Blade 1 Y force, node 13, N
         39   -4.493E+02                                 F               0         Blade 1 Z force, node 13, N
         40    2.549E+03                                 F               0         Blade 1 X force, node 14, N
         41   -4.793E+02                                 F               0         Blade 1 Y force, node 14, N
         42   -4.763E+02                                 F               0         Blade 1 Z force, node 14, N
         43    2.733E+03                                 F               0         Blade 1 X force, node 15, N
         44   -5.305E+02                                 F               0         Blade 1 Y force, node 15, N
         45   -5.033E+02                                 F               0         Blade 1 Z force, node 15, N
         46    2.916E+03                                 F               0         Blade 1 X force, node 16, N
         47   -5.817E+02                                 F               0         Blade 1 Y force, node 16, N
         48   -5.303E+02                                 F               0         Blade 1 Z force, node 16, N
         49    3.595E+03                                 F               0         Blade 1 X force, node 17, N
         50   -7.304E+02                                 F               0         Blade 1 Y force, node 17, N
         51   -6.479E+02                                 F               0         Blade 1 Z force, node 17, N
         52    2.750E+03                                 F               0         Blade 1 X force, node 18, N
         53   -5.360E+02                                 F               0         Blade 1 Y force, node 18, N
         54   -5.056E+02                                 F               0         Blade 1 Z force, node 18, N
         55    3.381E+03                                 F               0         Blade 1 X force, node 19, N
         56   -6.208E+02                                 F               0         Blade 1 Y force, node 19, N
         57   -6.382E+02                                 F               0         Blade 1 Z force, node 19, N
         58    2.888E+03                                 F               0         Blade 1 X force, node 20, N
         59   -5.003E+02                                 F               0         Blade 1 Y force, node 20, N
         60   -5.581E+02                                 F               0         Blade 1 Z force, node 20, N
         61    4.272E+03                                 F               0         Blade 1 X force, node 21, N
         62   -6.911E+02                                 F               0         Blade 1 Y force, node 21, N
         63   -8.470E+02                                 F               0         Blade 1 Z force, node 21, N
         64    3.778E+03                                 F               0         Blade 1 X force, node 22, N
         65   -5.700E+02                                 F               0         Blade 1 Y force, node 22, N
         66   -7.669E+02                                 F               0         Blade 1 Z force, node 22, N
         67    3.886E+03                                 F               0         Blade 1 X force, node 23, N
         68   -5.496E+02                                 F               0         Blade 1 Y force, node 23, N
         69   -8.049E+02                                 F               0         Blade 1 Z force, node 23, N
         70    4.064E+03                                 F               0         Blade 1 X force, node 24, N
         71   -5.386E+02                                 F               0         Blade 1 Y force, node 24, N
         72   -8.576E+02                                 F               0         Blade 1 Z force, node 24, N
         73    4.171E+03                                 F               0         Blade 1 X force, node 25, N
         74   -5.179E+02                                 F               0         Blade 1 Y force, node 25, N
         75   -8.954E+02                                 F               0         Blade 1 Z force, node 25, N
         76    4.302E+03                                 F               0         Blade 1 X force, node 26, N
         77   -5.003E+02                                 F               0         Blade 1 Y force, node 26, N
         78   -9.381E+02                                 F               0         Blade 1 Z force, node 26, N
         79    5.162E+03                                 F               0         Blade 1 X force, node 27, N
         80   -5.599E+02                                 F               0         Blade 1 Y force, node 27, N
         81   -1.143E+03                                 F               0         Blade 1 Z force, node 27, N
         82    3.832E+03                                 F               0         Blade 1 X force, node 28, N
         83   -3.877E+02                                 F               0         Blade 1 Y force, node 28, N
         84   -8.609E+02                                 F               0         Blade 1 Z force, node 28, N
         85    4.693E+03                                 F               0         Blade 1 X force, node 29, N
         86   -4.473E+02                                 F               0         Blade 1 Y force, node 29, N
         87   -1.066E+03                                 F               0         Blade 1 Z force, node 29, N
         88    3.996E+03                                 F               0         Blade 1 X force, node 30, N
         89   -3.587E+02                                 F               0         Blade 1 Y force, node 30, N
         90   -9.177E+02                                 F               0         Blade 1 Z force, node 30, N
         91    5.780E+03                                 F               0         Blade 1 X force, node 31, N
         92   -4.828E+02                                 F               0         Blade 1 Y force, node 31, N
         93   -1.343E+03                                 F               0         Blade 1 Z force, node 31, N
         94    5.083E+03                                 F               0         Blade 1 X force, node 32, N
         95   -3.941E+02                                 F               0         Blade 1 Y force, node 32, N
         96   -1.194E+03                                 F               0         Blade 1 Z force, node 32, N
         97    5.212E+03                                 F               0         Blade 1 X force, node 33, N
         98   -3.763E+02                                 F               0         Blade 1 Y force, node 33, N
         99   -1.237E+03                                 F               0         Blade 1 Z force, node 33, N
        100    5.343E+03                                 F               0         Blade 1 X force, node 34, N
        101   -3.586E+02                                 F               0         Blade 1 Y force, node 34, N
        102   -1.280E+03                                 F               0         Blade 1 Z force, node 34, N
        103    5.473E+03                                 F               0         Blade 1 X force, node 35, N
        104   -3.408E+02                                 F               0         Blade 1 Y force, node 35, N
        105   -1.322E+03                                 F               0         Blade 1 Z force, node 35, N
        106    5.602E+03                                 F               0         Blade 1 X force, node 36, N
        107   -3.230E+02                                 F               0         Blade 1 Y force, node 36, N
        108   -1.365E+03                                 F               0         Blade 1 Z force, node 36, N
        109    6.707E+03                                 F               0         Blade 1 X force, node 37, N
        110   -3.552E+02                                 F               0         Blade 1 Y force, node 37, N
        111   -1.648E+03                                 F               0         Blade 1 Z force, node 37, N
        112    4.888E+03                                 F               0         Blade 1 X force, node 38, N
        113   -2.375E+02                                 F               0         Blade 1 Y force, node 38, N
        114   -1.210E+03                                 F               0         Blade 1 Z force, node 38, N
        115    5.994E+03                                 F               0         Blade 1 X force, node 39, N
        116   -2.698E+02                                 F               0         Blade 1 Y force, node 39, N
        117   -1.493E+03                                 F               0         Blade 1 Z force, node 39, N
        118    5.114E+03                                 F               0         Blade 1 X force, node 40, N
        119   -2.126E+02                                 F               0         Blade 1 Y force, node 40, N
        120   -1.282E+03                                 F               0         Blade 1 Z force, node 40, N
        121    7.268E+03                                 F               0         Blade 1 X force, node 41, N
        122   -2.740E+02                                 F               0         Blade 1 Y force, node 41, N
        123   -1.834E+03                                 F               0         Blade 1 Z force, node 41, N
        124    6.386E+03                                 F               0         Blade 1 X force, node 42, N
        125   -2.167E+02                                 F               0         Blade 1 Y force, node 42, N
        126   -1.622E+03                                 F               0         Blade 1 Z force, node 42, N
        127    6.515E+03                                 F               0         Blade 1 X force, node 43, N
        128   -1.988E+02                                 F               0         Blade 1 Y force, node 43, N
        129   -1.664E+03                                 F               0         Blade 1 Z force, node 43, N
        130    6.680E+03                                 F               0         Blade 1 X force, node 44, N
        131   -1.819E+02                                 F               0         Blade 1 Y force, node 44, N
        132   -1.716E+03                                 F               0         Blade 1 Z force, node 44, N
        133    6.739E+03                                 F               0         Blade 1 X force, node 45, N
        134   -1.623E+02                                 F               0         Blade 1 Y force, node 45, N
        135   -1.740E+03                                 F               0         Blade 1 Z force, node 45, N
        136    6.904E+03                                 F               0         Blade 1 X force, node 46, N
        137   -1.455E+02                                 F               0         Blade 1 Y force, node 46, N
        138   -1.792E+03                                 F               0         Blade 1 Z force, node 46, N
        139    8.268E+03                                 F               0         Blade 1 X force, node 47, N
        140   -1.486E+02                                 F               0         Blade 1 Y force, node 47, N
        141   -2.157E+03                                 F               0         Blade 1 Z force, node 47, N
        142    5.929E+03                                 F               0         Blade 1 X force, node 48, N
        143   -8.911E+01                                 F               0         Blade 1 Y force, node 48, N
        144   -1.555E+03                                 F               0         Blade 1 Z force, node 48, N
        145    7.292E+03                                 F               0         Blade 1 X force, node 49, N
        146   -9.216E+01                                 F               0         Blade 1 Y force, node 49, N
        147   -1.920E+03                                 F               0         Blade 1 Z force, node 49, N
        148    6.241E+03                                 F               0         Blade 1 X force, node 50, N
        149   -6.422E+01                                 F               0         Blade 1 Y force, node 50, N
        150   -1.649E+03                                 F               0         Blade 1 Z force, node 50, N
        151    8.732E+03                                 F               0         Blade 1 X force, node 51, N
        152   -6.677E+01                                 F               0         Blade 1 Y force, node 51, N
        153   -2.318E+03                                 F               0         Blade 1 Z force, node 51, N
        154    7.683E+03                                 F               0         Blade 1 X force, node 52, N
        155   -3.898E+01                                 F               0         Blade 1 Y force, node 52, N
        156   -2.048E+03                                 F               0         Blade 1 Z force, node 52, N
        157    7.814E+03                                 F               0         Blade 1 X force, node 53, N
        158   -2.133E+01                                 F               0         Blade 1 Y force, node 53, N
        159   -2.091E+03                                 F               0         Blade 1 Z force, node 53, N
        160    8.033E+03                                 F               0         Blade 1 X force, node 54, N
        161   -3.660E+00                                 F               0         Blade 1 Y force, node 54, N
        162   -2.157E+03                                 F               0         Blade 1 Z force, node 54, N
        163    7.988E+03                                 F               0         Blade 1 X force, node 55, N
        164    1.396E+01                                 F               0         Blade 1 Y force, node 55, N
        165   -2.153E+03                                 F               0         Blade 1 Z force, node 55, N
        166    8.207E+03                                 F               0         Blade 1 X force, node 56, N
        167    3.167E+01                                 F               0         Blade 1 Y force, node 56, N
        168   -2.219E+03                                 F               0         Blade 1 Z force, node 56, N
        169    9.846E+03                                 F               0         Blade 1 X force, node 57, N
        170    5.966E+01                                 F               0         Blade 1 Y force, node 57, N
        171   -2.672E+03                                 F               0         Blade 1 Z force, node 57, N
        172    6.959E+03                                 F               0         Blade 1 X force, node 58, N
        173    5.673E+01                                 F               0         Blade 1 Y force, node 58, N
        174   -1.895E+03                                 F               0         Blade 1 Z force, node 58, N
        175    8.599E+03                                 F               0         Blade 1 X force, node 59, N
        176    8.473E+01                                 F               0         Blade 1 Y force, node 59, N
        177   -2.348E+03                                 F               0         Blade 1 Z force, node 59, N
        178    7.393E+03                                 F               0         Blade 1 X force, node 60, N
        179    8.535E+01                                 F               0         Blade 1 Y force, node 60, N
        180   -2.024E+03                                 F               0         Blade 1 Z force, node 60, N
        181    1.020E+04                                 F               0         Blade 1 X force, node 61, N
        182    1.372E+02                                 F               0         Blade 1 Y force, node 61, N
        183   -2.800E+03                                 F               0         Blade 1 Z force, node 61, N
        184    8.988E+03                                 F               0         Blade 1 X force, node 62, N