
Linearized model: Predictions were generated on 19-Dec-2023 at 09:27:32 using OpenFAST, compiled as a 64-bit application using single precision at commit v3.5.1
 linked with  NWTC Subroutine Library; ElastoDyn; InflowWind; AeroDyn; ServoDyn; HydroDyn; MoorDyn (v2.0.0, 2023-09-18)

Description from the FAST input file: CCT-9 Campign 4 model. Input files to be run with OpenFAST 3.5.0. GitHub branch from Lu Wang (https://github.com/luwang00/openfast/tree/dev) compiled on March 7, 2023.

Simulation information:
   Simulation time:                  1000.5000 s
   Rotor Speed:                         1.0418 rad/s
   Azimuth:                             5.6472 rad
   Wind Speed:                         12.0000 m/s
   Number of continuous states:         0
   Number of discrete states:           0
   Number of constraint states:         0
   Number of inputs:                   54
   Number of outputs:                   0
   Jacobians included in this file?    No

Order of inputs:
     Column   Operating Point                     Rotating Frame? Derivative Order Description
   ---------- ---------------                     --------------- ---------------- -----------
          1    1.031E+01                                 F               0         CoupledKinematics X translation displacement, node 1, m
          2    8.353E-01                                 F               0         CoupledKinematics Y translation displacement, node 1, m
          3   -6.522E+00                                 F               0         CoupledKinematics Z translation displacement, node 1, m
          4    9.199E+00                                 F               0         CoupledKinematics X translation displacement, node 2, m
          5    7.445E-01                                 F               0         CoupledKinematics Y translation displacement, node 2, m
          6   -2.533E+00                                 F               0         CoupledKinematics Z translation displacement, node 2, m
          7    1.081E+01                                 F               0         CoupledKinematics X translation displacement, node 3, m
          8   -6.755E-01                                 F               0         CoupledKinematics Y translation displacement, node 3, m
          9    9.034E+00                                 F               0         CoupledKinematics Z translation displacement, node 3, m
         10    9.881E-01,  1.649E-02, -1.526E-01         F               0         CoupledKinematics X orientation angle, node 1, rad
         11   -1.085E-02,  9.992E-01,  3.769E-02         F               0         CoupledKinematics Y orientation angle, node 1, rad
         12    1.531E-01, -3.559E-02,  9.876E-01         F               0         CoupledKinematics Z orientation angle, node 1, rad
         13    9.881E-01,  1.649E-02, -1.526E-01         F               0         CoupledKinematics X orientation angle, node 2, rad
         14   -1.085E-02,  9.992E-01,  3.769E-02         F               0         CoupledKinematics Y orientation angle, node 2, rad
         15    1.531E-01, -3.559E-02,  9.876E-01         F               0         CoupledKinematics Z orientation angle, node 2, rad
         16    9.881E-01,  1.649E-02, -1.526E-01         F               0         CoupledKinematics X orientation angle, node 3, rad
         17   -1.085E-02,  9.992E-01,  3.769E-02         F               0         CoupledKinematics Y orientation angle, node 3, rad
         18    1.531E-01, -3.559E-02,  9.876E-01         F               0         CoupledKinematics Z orientation angle, node 3, rad
         19   -8.884E-03                                 F               0         CoupledKinematics X translation velocity, node 1, m/s
         20   -2.311E-03                                 F               0         CoupledKinematics Y translation velocity, node 1, m/s
         21   -4.312E-03                                 F               0         CoupledKinematics Z translation velocity, node 1, m/s
         22    7.621E-03                                 F               0         CoupledKinematics X translation velocity, node 2, m/s
         23   -2.385E-03                                 F               0         CoupledKinematics Y translation velocity, node 2, m/s
         24    5.102E-03                                 F               0         CoupledKinematics Z translation velocity, node 2, m/s
         25   -3.231E-04                                 F               0         CoupledKinematics X translation velocity, node 3, m/s
         26    1.037E-02                                 F               0         CoupledKinematics Y translation velocity, node 3, m/s
         27    3.765E-03                                 F               0         CoupledKinematics Z translation velocity, node 3, m/s
         28    9.077E-05                                 F               0         CoupledKinematics X rotation velocity, node 1, rad/s
         29    3.990E-05                                 F               0         CoupledKinematics Y rotation velocity, node 1, rad/s
         30   -1.588E-04                                 F               0         CoupledKinematics Z rotation velocity, node 1, rad/s
         31    9.077E-05                                 F               0         CoupledKinematics X rotation velocity, node 2, rad/s
         32    3.990E-05                                 F               0         CoupledKinematics Y rotation velocity, node 2, rad/s
         33   -1.588E-04                                 F               0         CoupledKinematics Z rotation velocity, node 2, rad/s
         34    9.077E-05                                 F               0         CoupledKinematics X rotation velocity, node 3, rad/s
         35    3.990E-05                                 F               0         CoupledKinematics Y rotation velocity, node 3, rad/s
         36   -1.588E-04                                 F               0         CoupledKinematics Z rotation velocity, node 3, rad/s
         37   -3.196E-03                                 F               0         CoupledKinematics X translation acceleration, node 1, m/s^2
         38    2.325E-03                                 F               0         CoupledKinematics Y translation acceleration, node 1, m/s^2
         39   -6.178E-03                                 F               0         CoupledKinematics Z translation acceleration, node 1, m/s^2
         40    3.037E-03                                 F               0         CoupledKinematics X translation acceleration, node 2, m/s^2
         41    1.781E-03                                 F               0         CoupledKinematics Y translation acceleration, node 2, m/s^2
         42    1.061E-02                                 F               0         CoupledKinematics Z translation acceleration, node 2, m/s^2
         43   -4.101E-04                                 F               0         CoupledKinematics X translation acceleration, node 3, m/s^2
         44    5.214E-03                                 F               0         CoupledKinematics Y translation acceleration, node 3, m/s^2
         45    4.042E-04                                 F               0         CoupledKinematics Z translation acceleration, node 3, m/s^2
         46    1.635E-04                                 F               0         CoupledKinematics X rotation acceleration, node 1, rad/s^2
         47   -1.793E-05                                 F               0         CoupledKinematics Y rotation acceleration, node 1, rad/s^2
         48   -6.126E-05                                 F               0         CoupledKinematics Z rotation acceleration, node 1, rad/s^2
         49    1.635E-04                                 F               0         CoupledKinematics X rotation acceleration, node 2, rad/s^2
         50   -1.793E-05                                 F               0         CoupledKinematics Y rotation acceleration, node 2, rad/s^2
         51   -6.126E-05                                 F               0         CoupledKinematics Z rotation acceleration, node 2, rad/s^2
         52    1.635E-04                                 F               0         CoupledKinematics X rotation acceleration, node 3, rad/s^2
         53   -1.793E-05                                 F               0         CoupledKinematics Y rotation acceleration, node 3, rad/s^2
         54   -6.126E-05                                 F               0         CoupledKinematics Z rotation acceleration, node 3, rad/s^2


Linearized state matrices:

