
Linearized model: Predictions were generated on 19-Dec-2023 at 09:27:32 using OpenFAST, compiled as a 64-bit application using single precision at commit v3.5.1
 linked with  NWTC Subroutine Library; ElastoDyn; InflowWind; AeroDyn; ServoDyn; HydroDyn; MoorDyn (v2.0.0, 2023-09-18)

Description from the FAST input file: CCT-9 Campign 4 model. Input files to be run with OpenFAST 3.5.0. GitHub branch from Lu Wang (https://github.com/luwang00/openfast/tree/dev) compiled on March 7, 2023.

Simulation information:
   Simulation time:                  1008.2000 s
   Rotor Speed:                         1.0408 rad/s
   Azimuth:                             1.0974 rad
   Wind Speed:                         12.0000 m/s
   Number of continuous states:         0
   Number of discrete states:           0
   Number of constraint states:         0
   Number of inputs:                 1746
   Number of outputs:                   4
   Jacobians included in this file?    No

Order of inputs:
     Column   Operating Point                     Rotating Frame? Derivative Order Description
   ---------- ---------------                     --------------- ---------------- -----------
          1    1.511E+01                                 F               0         Tower X translation displacement, node 1, m
          2   -9.545E-01                                 F               0         Tower Y translation displacement, node 1, m
          3   -4.129E-01                                 F               0         Tower Z translation displacement, node 1, m
          4    1.702E+01                                 F               0         Tower X translation displacement, node 2, m
          5   -1.462E+00                                 F               0         Tower Y translation displacement, node 2, m
          6   -5.717E-01                                 F               0         Tower Z translation displacement, node 2, m
          7    1.896E+01                                 F               0         Tower X translation displacement, node 3, m
          8   -1.974E+00                                 F               0         Tower Y translation displacement, node 3, m
          9   -7.360E-01                                 F               0         Tower Z translation displacement, node 3, m
         10    2.093E+01                                 F               0         Tower X translation displacement, node 4, m
         11   -2.489E+00                                 F               0         Tower Y translation displacement, node 4, m
         12   -9.047E-01                                 F               0         Tower Z translation displacement, node 4, m
         13    2.292E+01                                 F               0         Tower X translation displacement, node 5, m
         14   -3.008E+00                                 F               0         Tower Y translation displacement, node 5, m
         15   -1.077E+00                                 F               0         Tower Z translation displacement, node 5, m
         16    2.493E+01                                 F               0         Tower X translation displacement, node 6, m
         17   -3.529E+00                                 F               0         Tower Y translation displacement, node 6, m
         18   -1.253E+00                                 F               0         Tower Z translation displacement, node 6, m
         19    2.695E+01                                 F               0         Tower X translation displacement, node 7, m
         20   -4.053E+00                                 F               0         Tower Y translation displacement, node 7, m
         21   -1.431E+00                                 F               0         Tower Z translation displacement, node 7, m
         22    2.899E+01                                 F               0         Tower X translation displacement, node 8, m
         23   -4.578E+00                                 F               0         Tower Y translation displacement, node 8, m
         24   -1.610E+00                                 F               0         Tower Z translation displacement, node 8, m
         25    3.103E+01                                 F               0         Tower X translation displacement, node 9, m
         26   -5.104E+00                                 F               0         Tower Y translation displacement, node 9, m
         27   -1.792E+00                                 F               0         Tower Z translation displacement, node 9, m
         28    3.307E+01                                 F               0         Tower X translation displacement, node 10, m
         29   -5.631E+00                                 F               0         Tower Y translation displacement, node 10, m
         30   -1.974E+00                                 F               0         Tower Z translation displacement, node 10, m
         31    3.512E+01                                 F               0         Tower X translation displacement, node 11, m
         32   -6.159E+00                                 F               0         Tower Y translation displacement, node 11, m
         33   -2.156E+00                                 F               0         Tower Z translation displacement, node 11, m
         34    9.881E-01,  1.481E-02, -1.529E-01         F               0         Tower X orientation angle, node 1, rad
         35   -8.368E-03,  9.991E-01,  4.271E-02         F               0         Tower Y orientation angle, node 1, rad
         36    1.533E-01, -4.092E-02,  9.873E-01         F               0         Tower Z orientation angle, node 1, rad
         37    9.877E-01,  1.492E-02, -1.554E-01         F               0         Tower X orientation angle, node 2, rad
         38   -8.309E-03,  9.990E-01,  4.309E-02         F               0         Tower Y orientation angle, node 2, rad
         39    1.559E-01, -4.127E-02,  9.869E-01         F               0         Tower Z orientation angle, node 2, rad
         40    9.874E-01,  1.501E-02, -1.577E-01         F               0         Tower X orientation angle, node 3, rad
         41   -8.254E-03,  9.990E-01,  4.343E-02         F               0         Tower Y orientation angle, node 3, rad
         42    1.582E-01, -4.158E-02,  9.865E-01         F               0         Tower Z orientation angle, node 3, rad
         43    9.871E-01,  1.510E-02, -1.597E-01         F               0         Tower X orientation angle, node 4, rad
         44   -8.206E-03,  9.990E-01,  4.372E-02         F               0         Tower Y orientation angle, node 4, rad
         45    1.602E-01, -4.185E-02,  9.862E-01         F               0         Tower Z orientation angle, node 4, rad
         46    9.868E-01,  1.517E-02, -1.613E-01         F               0         Tower X orientation angle, node 5, rad
         47   -8.165E-03,  9.990E-01,  4.398E-02         F               0         Tower Y orientation angle, node 5, rad
         48    1.618E-01, -4.208E-02,  9.859E-01         F               0         Tower Z orientation angle, node 5, rad
         49    9.866E-01,  1.522E-02, -1.626E-01         F               0         Tower X orientation angle, node 6, rad
         50   -8.130E-03,  9.990E-01,  4.419E-02         F               0         Tower Y orientation angle, node 6, rad
         51    1.631E-01, -4.228E-02,  9.857E-01         F               0         Tower Z orientation angle, node 6, rad
         52    9.864E-01,  1.527E-02, -1.637E-01         F               0         Tower X orientation angle, node 7, rad
         53   -8.101E-03,  9.990E-01,  4.436E-02         F               0         Tower Y orientation angle, node 7, rad
         54    1.642E-01, -4.243E-02,  9.855E-01         F               0         Tower Z orientation angle, node 7, rad
         55    9.863E-01,  1.530E-02, -1.644E-01         F               0         Tower X orientation angle, node 8, rad
         56   -8.079E-03,  9.990E-01,  4.450E-02         F               0         Tower Y orientation angle, node 8, rad
         57    1.649E-01, -4.256E-02,  9.854E-01         F               0         Tower Z orientation angle, node 8, rad
         58    9.862E-01,  1.532E-02, -1.650E-01         F               0         Tower X orientation angle, node 9, rad
         59   -8.063E-03,  9.990E-01,  4.459E-02         F               0         Tower Y orientation angle, node 9, rad
         60    1.655E-01, -4.265E-02,  9.853E-01         F               0         Tower Z orientation angle, node 9, rad
         61    9.861E-01,  1.534E-02, -1.653E-01         F               0         Tower X orientation angle, node 10, rad
         62   -8.053E-03,  9.990E-01,  4.466E-02         F               0         Tower Y orientation angle, node 10, rad
         63    1.658E-01, -4.271E-02,  9.852E-01         F               0         Tower Z orientation angle, node 10, rad
         64    9.861E-01,  1.535E-02, -1.655E-01         F               0         Tower X orientation angle, node 11, rad
         65   -8.047E-03,  9.990E-01,  4.469E-02         F               0         Tower Y orientation angle, node 11, rad
         66    1.660E-01, -4.274E-02,  9.852E-01         F               0         Tower Z orientation angle, node 11, rad
         67   -4.358E-04                                 F               0         Tower X translation velocity, node 1, m/s
         68   -1.687E-02                                 F               0         Tower Y translation velocity, node 1, m/s
         69    1.092E-03                                 F               0         Tower Z translation velocity, node 1, m/s
         70   -4.933E-04                                 F               0         Tower X translation velocity, node 2, m/s
         71   -2.894E-02                                 F               0         Tower Y translation velocity, node 2, m/s
         72    5.985E-04                                 F               0         Tower Z translation velocity, node 2, m/s
         73   -6.205E-04                                 F               0         Tower X translation velocity, node 3, m/s
         74   -4.125E-02                                 F               0         Tower Y translation velocity, node 3, m/s
         75    1.016E-04                                 F               0         Tower Z translation velocity, node 3, m/s
         76   -7.972E-04                                 F               0         Tower X translation velocity, node 4, m/s
         77   -5.376E-02                                 F               0         Tower Y translation velocity, node 4, m/s
         78   -3.990E-04                                 F               0         Tower Z translation velocity, node 4, m/s
         79   -1.011E-03                                 F               0         Tower X translation velocity, node 5, m/s
         80   -6.644E-02                                 F               0         Tower Y translation velocity, node 5, m/s
         81   -9.037E-04                                 F               0         Tower Z translation velocity, node 5, m/s
         82   -1.252E-03                                 F               0         Tower X translation velocity, node 6, m/s
         83   -7.926E-02                                 F               0         Tower Y translation velocity, node 6, m/s
         84   -1.413E-03                                 F               0         Tower Z translation velocity, node 6, m/s
         85   -1.509E-03                                 F               0         Tower X translation velocity, node 7, m/s
         86   -9.219E-02                                 F               0         Tower Y translation velocity, node 7, m/s
         87   -1.926E-03                                 F               0         Tower Z translation velocity, node 7, m/s
         88   -1.776E-03                                 F               0         Tower X translation velocity, node 8, m/s
         89   -1.052E-01                                 F               0         Tower Y translation velocity, node 8, m/s
         90   -2.444E-03                                 F               0         Tower Z translation velocity, node 8, m/s
         91   -2.048E-03                                 F               0         Tower X translation velocity, node 9, m/s
         92   -1.183E-01                                 F               0         Tower Y translation velocity, node 9, m/s
         93   -2.965E-03                                 F               0         Tower Z translation velocity, node 9, m/s
         94   -2.322E-03                                 F               0         Tower X translation velocity, node 10, m/s
         95   -1.315E-01                                 F               0         Tower Y translation velocity, node 10, m/s
         96   -3.489E-03                                 F               0         Tower Z translation velocity, node 10, m/s
         97   -2.595E-03                                 F               0         Tower X translation velocity, node 11, m/s
         98   -1.447E-01                                 F               0         Tower Y translation velocity, node 11, m/s
         99   -4.016E-03                                 F               0         Tower Z translation velocity, node 11, m/s
        100    3.658E+01                                 F               0         Hub X translation displacement, node 1, m
        101   -6.661E+00                                 F               0         Hub Y translation displacement, node 1, m
        102   -4.854E-01                                 F               0         Hub Z translation displacement, node 1, m
        103    9.633E-01,  1.973E-02, -2.676E-01         F               0         Hub X orientation angle, node 1, rad
        104    2.350E-01,  4.190E-01,  8.770E-01         F               0         Hub Y orientation angle, node 1, rad
        105    1.294E-01, -9.078E-01,  3.990E-01         F               0         Hub Z orientation angle, node 1, rad
        106    1.004E+00                                 F               0         Hub X rotation velocity, node 1, rad/s
        107    2.052E-02                                 F               0         Hub Y rotation velocity, node 1, rad/s
        108   -2.787E-01                                 F               0         Hub Z rotation velocity, node 1, rad/s
        109    9.559E-01,  7.291E-03, -2.935E-01         F               0         Blade root 1 X orientation angle, node 1, rad
        110    2.635E-01,  4.194E-01,  8.687E-01         F               0         Blade root 1 Y orientation angle, node 1, rad
        111    1.294E-01, -9.078E-01,  3.990E-01         F               0         Blade root 1 Z orientation angle, node 1, rad
        112    9.631E-01,  4.926E-02, -2.647E-01         F               0         Blade root 2 X orientation angle, node 1, rad
        113    2.315E-02, -9.946E-01, -1.009E-01         F               0         Blade root 2 Y orientation angle, node 1, rad
        114   -2.682E-01,  9.102E-02, -9.590E-01         F               0         Blade root 2 Z orientation angle, node 1, rad
        115    9.697E-01,  2.614E-03, -2.442E-01         F               0         Blade root 3 X orientation angle, node 1, rad
        116   -2.009E-01,  5.770E-01, -7.917E-01         F               0         Blade root 3 Y orientation angle, node 1, rad
        117    1.388E-01,  8.168E-01,  5.600E-01         F               0         Blade root 3 Z orientation angle, node 1, rad
        118    3.672E+01                                 F               0         Blade 1 X translation displacement, node 1, m
        119   -1.169E+01                                 F               0         Blade 1 Y translation displacement, node 1, m
        120   -3.785E+00                                 F               0         Blade 1 Z translation displacement, node 1, m
        121    3.675E+01                                 F               0         Blade 1 X translation displacement, node 2, m
        122   -1.290E+01                                 F               0         Blade 1 Y translation displacement, node 2, m
        123   -4.580E+00                                 F               0         Blade 1 Z translation displacement, node 2, m
        124    3.720E+01                                 F               0         Blade 1 X translation displacement, node 3, m
        125   -2.938E+01                                 F               0         Blade 1 Y translation displacement, node 3, m
        126   -1.539E+01                                 F               0         Blade 1 Z translation displacement, node 3, m
        127    3.730E+01                                 F               0         Blade 1 X translation displacement, node 4, m
        128   -3.289E+01                                 F               0         Blade 1 Y translation displacement, node 4, m
        129   -1.769E+01                                 F               0         Blade 1 Z translation displacement, node 4, m
        130    3.739E+01                                 F               0         Blade 1 X translation displacement, node 5, m
        131   -3.640E+01                                 F               0         Blade 1 Y translation displacement, node 5, m
        132   -2.000E+01                                 F               0         Blade 1 Z translation displacement, node 5, m
        133    3.749E+01                                 F               0         Blade 1 X translation displacement, node 6, m
        134   -3.991E+01                                 F               0         Blade 1 Y translation displacement, node 6, m
        135   -2.230E+01                                 F               0         Blade 1 Z translation displacement, node 6, m
        136    3.759E+01                                 F               0         Blade 1 X translation displacement, node 7, m
        137   -4.342E+01                                 F               0         Blade 1 Y translation displacement, node 7, m
        138   -2.460E+01                                 F               0         Blade 1 Z translation displacement, node 7, m
        139    3.768E+01                                 F               0         Blade 1 X translation displacement, node 8, m
        140   -4.693E+01                                 F               0         Blade 1 Y translation displacement, node 8, m
        141   -2.691E+01                                 F               0         Blade 1 Z translation displacement, node 8, m
        142    3.778E+01                                 F               0         Blade 1 X translation displacement, node 9, m
        143   -5.045E+01                                 F               0         Blade 1 Y translation displacement, node 9, m
        144   -2.921E+01                                 F               0         Blade 1 Z translation displacement, node 9, m
        145    3.787E+01                                 F               0         Blade 1 X translation displacement, node 10, m
        146   -5.396E+01                                 F               0         Blade 1 Y translation displacement, node 10, m
        147   -3.151E+01                                 F               0         Blade 1 Z translation displacement, node 10, m
        148    3.797E+01                                 F               0         Blade 1 X translation displacement, node 11, m
        149   -5.747E+01                                 F               0         Blade 1 Y translation displacement, node 11, m
        150   -3.382E+01                                 F               0         Blade 1 Z translation displacement, node 11, m
        151    3.807E+01                                 F               0         Blade 1 X translation displacement, node 12, m
        152   -6.098E+01                                 F               0         Blade 1 Y translation displacement, node 12, m
        153   -3.612E+01                                 F               0         Blade 1 Z translation displacement, node 12, m
        154    3.816E+01                                 F               0         Blade 1 X translation displacement, node 13, m
        155   -6.449E+01                                 F               0         Blade 1 Y translation displacement, node 13, m
        156   -3.842E+01                                 F               0         Blade 1 Z translation displacement, node 13, m
        157    3.826E+01                                 F               0         Blade 1 X translation displacement, node 14, m
        158   -6.800E+01                                 F               0         Blade 1 Y translation displacement, node 14, m
        159   -4.073E+01                                 F               0         Blade 1 Z translation displacement, node 14, m
        160    3.836E+01                                 F               0         Blade 1 X translation displacement, node 15, m
        161   -7.151E+01                                 F               0         Blade 1 Y translation displacement, node 15, m
        162   -4.303E+01                                 F               0         Blade 1 Z translation displacement, node 15, m
        163    3.845E+01                                 F               0         Blade 1 X translation displacement, node 16, m
        164   -7.502E+01                                 F               0         Blade 1 Y translation displacement, node 16, m
        165   -4.533E+01                                 F               0         Blade 1 Z translation displacement, node 16, m
        166    3.855E+01                                 F               0         Blade 1 X translation displacement, node 17, m
        167   -7.853E+01                                 F               0         Blade 1 Y translation displacement, node 17, m
        168   -4.764E+01                                 F               0         Blade 1 Z translation displacement, node 17, m
        169    3.864E+01                                 F               0         Blade 1 X translation displacement, node 18, m
        170   -8.204E+01                                 F               0         Blade 1 Y translation displacement, node 18, m
        171   -4.994E+01                                 F               0         Blade 1 Z translation displacement, node 18, m
        172    3.874E+01                                 F               0         Blade 1 X translation displacement, node 19, m
        173   -8.556E+01                                 F               0         Blade 1 Y translation displacement, node 19, m
        174   -5.224E+01                                 F               0         Blade 1 Z translation displacement, node 19, m
        175    3.884E+01                                 F               0         Blade 1 X translation displacement, node 20, m
        176   -8.907E+01                                 F               0         Blade 1 Y translation displacement, node 20, m
        177   -5.455E+01                                 F               0         Blade 1 Z translation displacement, node 20, m
        178    3.893E+01                                 F               0         Blade 1 X translation displacement, node 21, m
        179   -9.258E+01                                 F               0         Blade 1 Y translation displacement, node 21, m
        180   -5.685E+01                                 F               0         Blade 1 Z translation displacement, node 21, m
        181    3.903E+01                                 F               0         Blade 1 X translation displacement, node 22, m
        182   -9.609E+01                                 F               0         Blade 1 Y translation displacement, node 22, m
        183   -5.915E+01                                 F               0         Blade 1 Z translation displacement, node 22, m
        184    3.913E+01                                 F               0         Blade 1 X translation displacement, node 23, m
        185   -9.960E+01                                 F               0         Blade 1 Y translation displacement, node 23, m
        186   -6.146E+01                                 F               0         Blade 1 Z translation displacement, node 23, m
        187    3.922E+01                                 F               0         Blade 1 X translation displacement, node 24, m
        188   -1.031E+02                                 F               0         Blade 1 Y translation displacement, node 24, m
        189   -6.376E+01                                 F               0         Blade 1 Z translation displacement, node 24, m
        190    3.932E+01                                 F               0         Blade 1 X translation displacement, node 25, m
        191   -1.066E+02                                 F               0         Blade 1 Y translation displacement, node 25, m
        192   -6.606E+01                                 F               0         Blade 1 Z translation displacement, node 25, m
        193    3.941E+01                                 F               0         Blade 1 X translation displacement, node 26, m
        194   -1.101E+02                                 F               0         Blade 1 Y translation displacement, node 26, m
        195   -6.837E+01                                 F               0         Blade 1 Z translation displacement, node 26, m
        196    3.951E+01                                 F               0         Blade 1 X translation displacement, node 27, m
        197   -1.136E+02                                 F               0         Blade 1 Y translation displacement, node 27, m
        198   -7.067E+01                                 F               0         Blade 1 Z translation displacement, node 27, m
        199    3.959E+01                                 F               0         Blade 1 X translation displacement, node 28, m
        200   -1.166E+02                                 F               0         Blade 1 Y translation displacement, node 28, m
        201   -7.262E+01                                 F               0         Blade 1 Z translation displacement, node 28, m
        202    7.306E-01, -1.848E-01, -6.573E-01         F               0         Blade 1 X orientation angle, node 1, rad
        203    6.704E-01,  3.766E-01,  6.393E-01         F               0         Blade 1 Y orientation angle, node 1, rad
        204    1.294E-01, -9.078E-01,  3.990E-01         F               0         Blade 1 Z orientation angle, node 1, rad
        205    7.306E-01, -1.848E-01, -6.573E-01         F               0         Blade 1 X orientation angle, node 2, rad
        206    6.704E-01,  3.766E-01,  6.393E-01         F               0         Blade 1 Y orientation angle, node 2, rad
        207    1.294E-01, -9.078E-01,  3.990E-01         F               0         Blade 1 Z orientation angle, node 2, rad
        208    8.687E-01, -9.025E-02, -4.871E-01         F               0         Blade 1 X orientation angle, node 3, rad
        209    4.781E-01,  4.096E-01,  7.769E-01         F               0         Blade 1 Y orientation angle, node 3, rad
        210    1.294E-01, -9.078E-01,  3.990E-01         F               0         Blade 1 Z orientation angle, node 3, rad
        211    8.881E-01, -7.287E-02, -4.538E-01         F               0         Blade 1 X orientation angle, node 4, rad
        212    4.410E-01,  4.131E-01,  7.968E-01         F               0         Blade 1 Y orientation angle, node 4, rad
        213    1.294E-01, -9.078E-01,  3.990E-01         F               0         Blade 1 Z orientation angle, node 4, rad
        214    9.022E-01, -5.913E-02, -4.272E-01         F               0         Blade 1 X orientation angle, node 5, rad
        215    4.114E-01,  4.153E-01,  8.114E-01         F               0         Blade 1 Y orientation angle, node 5, rad
        216    1.294E-01, -9.078E-01,  3.990E-01         F               0         Blade 1 Z orientation angle, node 5, rad
        217    9.128E-01, -4.810E-02, -4.055E-01         F               0         Blade 1 X orientation angle, node 6, rad
        218    3.873E-01,  4.167E-01,  8.224E-01         F               0         Blade 1 Y orientation angle, node 6, rad
        219    1.294E-01, -9.078E-01,  3.990E-01         F               0         Blade 1 Z orientation angle, node 6, rad
        220    9.211E-01, -3.900E-02, -3.874E-01         F               0         Blade 1 X orientation angle, node 7, rad
        221    3.673E-01,  4.177E-01,  8.311E-01         F               0         Blade 1 Y orientation angle, node 7, rad
        222    1.294E-01, -9.078E-01,  3.990E-01         F               0         Blade 1 Z orientation angle, node 7, rad
        223    9.276E-01, -3.141E-02, -3.723E-01         F               0         Blade 1 X orientation angle, node 8, rad
        224    3.505E-01,  4.183E-01,  8.380E-01         F               0         Blade 1 Y orientation angle, node 8, rad
        225    1.294E-01, -9.078E-01,  3.990E-01         F               0         Blade 1 Z orientation angle, node 8, rad
        226    9.329E-01, -2.498E-02, -3.594E-01         F               0         Blade 1 X orientation angle, node 9, rad
        227    3.362E-01,  4.187E-01,  8.436E-01         F               0         Blade 1 Y orientation angle, node 9, rad