
Linearized model: Predictions were generated on 19-Dec-2023 at 09:27:32 using OpenFAST, compiled as a 64-bit application using single precision at commit v3.5.1
 linked with  NWTC Subroutine Library; ElastoDyn; InflowWind; AeroDyn; ServoDyn; HydroDyn; MoorDyn (v2.0.0, 2023-09-18)

Description from the FAST input file: CCT-9 Campign 4 model. Input files to be run with OpenFAST 3.5.0. GitHub branch from Lu Wang (https://github.com/luwang00/openfast/tree/dev) compiled on March 7, 2023.

Simulation information:
   Simulation time:                  1001.0000 s
   Rotor Speed:                         1.0416 rad/s
   Azimuth:                             6.1681 rad
   Wind Speed:                         12.0000 m/s
   Number of continuous states:        22
   Number of discrete states:           0
   Number of constraint states:         0
   Number of inputs:                 1890
   Number of outputs:                  38
   Jacobians included in this file?    No

Order of continuous states:
   Row/Column Operating Point                     Rotating Frame? Derivative Order Description
   ---------- ---------------                     --------------- ---------------- -----------
          1    1.230E+01                                 F               2         Platform horizontal surge translation DOF (internal DOF index = DOF_Sg), m
          2   -2.067E-01                                 F               2         Platform horizontal sway translation DOF (internal DOF index = DOF_Sw), m
          3   -2.103E-01                                 F               2         Platform vertical heave translation DOF (internal DOF index = DOF_Hv), m
          4    3.717E-02                                 F               2         Platform roll tilt rotation DOF (internal DOF index = DOF_R), rad
          5    1.549E-01                                 F               2         Platform pitch tilt rotation DOF (internal DOF index = DOF_P), rad
          6    1.376E-02                                 F               2         Platform yaw rotation DOF (internal DOF index = DOF_Y), rad
          7    1.075E+00                                 F               2         1st tower fore-aft bending mode DOF (internal DOF index = DOF_TFA1), m
          8    1.304E-01                                 F               2         1st tower side-to-side bending mode DOF (internal DOF index = DOF_TSS1), m
          9    1.602E-03                                 F               2         2nd tower fore-aft bending mode DOF (internal DOF index = DOF_TFA2), m
         10    6.463E-05                                 F               2         2nd tower side-to-side bending mode DOF (internal DOF index = DOF_TSS2), m
         11    4.597E+00                                 F               2         Variable speed generator DOF (internal DOF index = DOF_GeAz), rad
         12   -2.549E-04                                 F               2         First time derivative of Platform horizontal surge translation DOF (internal DOF index = DOF_Sg), m/s
         13    5.788E-04                                 F               2         First time derivative of Platform horizontal sway translation DOF (internal DOF index = DOF_Sw), m/s
         14    2.181E-03                                 F               2         First time derivative of Platform vertical heave translation DOF (internal DOF index = DOF_Hv), m/s
         15    1.705E-04                                 F               2         First time derivative of Platform roll tilt rotation DOF (internal DOF index = DOF_R), rad/s
         16    3.216E-05                                 F               2         First time derivative of Platform pitch tilt rotation DOF (internal DOF index = DOF_P), rad/s
         17   -1.864E-04                                 F               2         First time derivative of Platform yaw rotation DOF (internal DOF index = DOF_Y), rad/s
         18    2.649E-03                                 F               2         First time derivative of 1st tower fore-aft bending mode DOF (internal DOF index = DOF_TFA1), m/s
         19    1.281E-03                                 F               2         First time derivative of 1st tower side-to-side bending mode DOF (internal DOF index = DOF_TSS1), m/s
         20    3.483E-06                                 F               2         First time derivative of 2nd tower fore-aft bending mode DOF (internal DOF index = DOF_TFA2), m/s
         21   -1.332E-06                                 F               2         First time derivative of 2nd tower side-to-side bending mode DOF (internal DOF index = DOF_TSS2), m/s
         22    1.042E+00                                 F               2         First time derivative of Variable speed generator DOF (internal DOF index = DOF_GeAz), rad/s

Order of continuous state derivatives:
   Row/Column Operating Point                     Rotating Frame? Derivative Order Description
   ---------- ---------------                     --------------- ---------------- -----------
          1   -2.549E-04                                 F               2         First time derivative of Platform horizontal surge translation DOF (internal DOF index = DOF_Sg), m/s
          2    5.788E-04                                 F               2         First time derivative of Platform horizontal sway translation DOF (internal DOF index = DOF_Sw), m/s
          3    2.181E-03                                 F               2         First time derivative of Platform vertical heave translation DOF (internal DOF index = DOF_Hv), m/s
          4    1.705E-04                                 F               2         First time derivative of Platform roll tilt rotation DOF (internal DOF index = DOF_R), rad/s
          5    3.216E-05                                 F               2         First time derivative of Platform pitch tilt rotation DOF (internal DOF index = DOF_P), rad/s
          6   -1.864E-04                                 F               2         First time derivative of Platform yaw rotation DOF (internal DOF index = DOF_Y), rad/s
          7    2.649E-03                                 F               2         First time derivative of 1st tower fore-aft bending mode DOF (internal DOF index = DOF_TFA1), m/s
          8    1.281E-03                                 F               2         First time derivative of 1st tower side-to-side bending mode DOF (internal DOF index = DOF_TSS1), m/s
          9    3.483E-06                                 F               2         First time derivative of 2nd tower fore-aft bending mode DOF (internal DOF index = DOF_TFA2), m/s
         10   -1.332E-06                                 F               2         First time derivative of 2nd tower side-to-side bending mode DOF (internal DOF index = DOF_TSS2), m/s
         11    1.042E+00                                 F               2         First time derivative of Variable speed generator DOF (internal DOF index = DOF_GeAz), rad/s
         12   -2.243E-04                                 F               2         First time derivative of First time derivative of Platform horizontal surge translation DOF (internal DOF index = DOF_Sg), m/s/s
         13    7.194E-04                                 F               2         First time derivative of First time derivative of Platform horizontal sway translation DOF (internal DOF index = DOF_Sw), m/s/s
         14    1.621E-03                                 F               2         First time derivative of First time derivative of Platform vertical heave translation DOF (internal DOF index = DOF_Hv), m/s/s
         15    1.571E-04                                 F               2         First time derivative of First time derivative of Platform roll tilt rotation DOF (internal DOF index = DOF_R), rad/s/s
         16   -5.429E-06                                 F               2         First time derivative of First time derivative of Platform pitch tilt rotation DOF (internal DOF index = DOF_P), rad/s/s
         17   -4.892E-05                                 F               2         First time derivative of First time derivative of Platform yaw rotation DOF (internal DOF index = DOF_Y), rad/s/s
         18    2.360E-03                                 F               2         First time derivative of First time derivative of 1st tower fore-aft bending mode DOF (internal DOF index = DOF_TFA1), m/s/s
         19    3.926E-03                                 F               2         First time derivative of First time derivative of 1st tower side-to-side bending mode DOF (internal DOF index = DOF_TSS1), m/s/s
         20    2.208E-05                                 F               2         First time derivative of First time derivative of 2nd tower fore-aft bending mode DOF (internal DOF index = DOF_TFA2), m/s/s
         21    3.135E-06                                 F               2         First time derivative of First time derivative of 2nd tower side-to-side bending mode DOF (internal DOF index = DOF_TSS2), m/s/s
         22   -3.946E-04                                 F               2         First time derivative of First time derivative of Variable speed generator DOF (internal DOF index = DOF_GeAz), rad/s/s

Order of inputs:
     Column   Operating Point                     Rotating Frame? Derivative Order Description
   ---------- ---------------                     --------------- ---------------- -----------
          1    9.251E+01                                 F               0         Blade 1 X force, node 1, N
          2    9.943E+01                                 F               0         Blade 1 Y force, node 1, N
          3   -3.378E+01                                 F               0         Blade 1 Z force, node 1, N
          4    4.047E+02                                 F               0         Blade 1 X force, node 2, N
          5    1.984E+02                                 F               0         Blade 1 Y force, node 2, N
          6   -1.281E+02                                 F               0         Blade 1 Z force, node 2, N
          7    5.327E+02                                 F               0         Blade 1 X force, node 3, N
          8    1.229E+02                                 F               0         Blade 1 Y force, node 3, N
          9   -1.571E+02                                 F               0         Blade 1 Z force, node 3, N
         10    7.036E+02                                 F               0         Blade 1 X force, node 4, N
         11    7.099E+01                                 F               0         Blade 1 Y force, node 4, N
         12   -1.999E+02                                 F               0         Blade 1 Z force, node 4, N
         13    8.745E+02                                 F               0         Blade 1 X force, node 5, N
         14    1.912E+01                                 F               0         Blade 1 Y force, node 5, N
         15   -2.427E+02                                 F               0         Blade 1 Z force, node 5, N
         16    1.045E+03                                 F               0         Blade 1 X force, node 6, N
         17   -3.276E+01                                 F               0         Blade 1 Y force, node 6, N
         18   -2.855E+02                                 F               0         Blade 1 Z force, node 6, N
         19    1.216E+03                                 F               0         Blade 1 X force, node 7, N
         20   -8.463E+01                                 F               0         Blade 1 Y force, node 7, N
         21   -3.283E+02                                 F               0         Blade 1 Z force, node 7, N
         22    1.387E+03                                 F               0         Blade 1 X force, node 8, N
         23   -1.365E+02                                 F               0         Blade 1 Y force, node 8, N
         24   -3.712E+02                                 F               0         Blade 1 Z force, node 8, N
         25    1.558E+03                                 F               0         Blade 1 X force, node 9, N
         26   -1.884E+02                                 F               0         Blade 1 Y force, node 9, N
         27   -4.140E+02                                 F               0         Blade 1 Z force, node 9, N
         28    1.729E+03                                 F               0         Blade 1 X force, node 10, N
         29   -2.402E+02                                 F               0         Blade 1 Y force, node 10, N
         30   -4.568E+02                                 F               0         Blade 1 Z force, node 10, N
         31    1.900E+03                                 F               0         Blade 1 X force, node 11, N
         32   -2.921E+02                                 F               0         Blade 1 Y force, node 11, N
         33   -4.996E+02                                 F               0         Blade 1 Z force, node 11, N
         34    2.071E+03                                 F               0         Blade 1 X force, node 12, N
         35   -3.440E+02                                 F               0         Blade 1 Y force, node 12, N
         36   -5.424E+02                                 F               0         Blade 1 Z force, node 12, N
         37    2.242E+03                                 F               0         Blade 1 X force, node 13, N
         38   -3.959E+02                                 F               0         Blade 1 Y force, node 13, N
         39   -5.852E+02                                 F               0         Blade 1 Z force, node 13, N
         40    2.413E+03                                 F               0         Blade 1 X force, node 14, N
         41   -4.477E+02                                 F               0         Blade 1 Y force, node 14, N
         42   -6.280E+02                                 F               0         Blade 1 Z force, node 14, N
         43    2.584E+03                                 F               0         Blade 1 X force, node 15, N
         44   -4.996E+02                                 F               0         Blade 1 Y force, node 15, N
         45   -6.708E+02                                 F               0         Blade 1 Z force, node 15, N
         46    2.755E+03                                 F               0         Blade 1 X force, node 16, N
         47   -5.515E+02                                 F               0         Blade 1 Y force, node 16, N
         48   -7.137E+02                                 F               0         Blade 1 Z force, node 16, N
         49    3.394E+03                                 F               0         Blade 1 X force, node 17, N
         50   -6.963E+02                                 F               0         Blade 1 Y force, node 17, N
         51   -8.778E+02                                 F               0         Blade 1 Z force, node 17, N
         52    2.602E+03                                 F               0         Blade 1 X force, node 18, N
         53   -5.120E+02                                 F               0         Blade 1 Y force, node 18, N
         54   -6.749E+02                                 F               0         Blade 1 Z force, node 18, N
         55    3.208E+03                                 F               0         Blade 1 X force, node 19, N
         56   -5.934E+02                                 F               0         Blade 1 Y force, node 19, N
         57   -8.352E+02                                 F               0         Blade 1 Z force, node 19, N
         58    2.747E+03                                 F               0         Blade 1 X force, node 20, N
         59   -4.785E+02                                 F               0         Blade 1 Y force, node 20, N
         60   -7.176E+02                                 F               0         Blade 1 Z force, node 20, N
         61    4.076E+03                                 F               0         Blade 1 X force, node 21, N
         62   -6.613E+02                                 F               0         Blade 1 Y force, node 21, N
         63   -1.069E+03                                 F               0         Blade 1 Z force, node 21, N
         64    3.614E+03                                 F               0         Blade 1 X force, node 22, N
         65   -5.453E+02                                 F               0         Blade 1 Y force, node 22, N
         66   -9.512E+02                                 F               0         Blade 1 Z force, node 22, N
         67    3.727E+03                                 F               0         Blade 1 X force, node 23, N
         68   -5.256E+02                                 F               0         Blade 1 Y force, node 23, N
         69   -9.839E+02                                 F               0         Blade 1 Z force, node 23, N
         70    3.906E+03                                 F               0         Blade 1 X force, node 24, N
         71   -5.149E+02                                 F               0         Blade 1 Y force, node 24, N
         72   -1.034E+03                                 F               0         Blade 1 Z force, node 24, N
         73    4.018E+03                                 F               0         Blade 1 X force, node 25, N
         74   -4.945E+02                                 F               0         Blade 1 Y force, node 25, N
         75   -1.067E+03                                 F               0         Blade 1 Z force, node 25, N
         76    4.151E+03                                 F               0         Blade 1 X force, node 26, N
         77   -4.771E+02                                 F               0         Blade 1 Y force, node 26, N
         78   -1.105E+03                                 F               0         Blade 1 Z force, node 26, N
         79    4.991E+03                                 F               0         Blade 1 X force, node 27, N
         80   -5.331E+02                                 F               0         Blade 1 Y force, node 27, N
         81   -1.332E+03                                 F               0         Blade 1 Z force, node 27, N
         82    3.712E+03                                 F               0         Blade 1 X force, node 28, N
         83   -3.685E+02                                 F               0         Blade 1 Y force, node 28, N
         84   -9.928E+02                                 F               0         Blade 1 Z force, node 28, N
         85    4.552E+03                                 F               0         Blade 1 X force, node 29, N
         86   -4.242E+02                                 F               0         Blade 1 Y force, node 29, N
         87   -1.220E+03                                 F               0         Blade 1 Z force, node 29, N
         88    3.881E+03                                 F               0         Blade 1 X force, node 30, N
         89   -3.394E+02                                 F               0         Blade 1 Y force, node 30, N
         90   -1.042E+03                                 F               0         Blade 1 Z force, node 30, N
         91    5.622E+03                                 F               0         Blade 1 X force, node 31, N
         92   -4.554E+02                                 F               0         Blade 1 Y force, node 31, N
         93   -1.512E+03                                 F               0         Blade 1 Z force, node 31, N
         94    4.951E+03                                 F               0         Blade 1 X force, node 32, N
         95   -3.703E+02                                 F               0         Blade 1 Y force, node 32, N
         96   -1.335E+03                                 F               0         Blade 1 Z force, node 32, N
         97    5.084E+03                                 F               0         Blade 1 X force, node 33, N
         98   -3.521E+02                                 F               0         Blade 1 Y force, node 33, N
         99   -1.372E+03                                 F               0         Blade 1 Z force, node 33, N
        100    5.217E+03                                 F               0         Blade 1 X force, node 34, N
        101   -3.340E+02                                 F               0         Blade 1 Y force, node 34, N
        102   -1.411E+03                                 F               0         Blade 1 Z force, node 34, N
        103    5.350E+03                                 F               0         Blade 1 X force, node 35, N
        104   -3.158E+02                                 F               0         Blade 1 Y force, node 35, N
        105   -1.449E+03                                 F               0         Blade 1 Z force, node 35, N
        106    5.482E+03                                 F               0         Blade 1 X force, node 36, N
        107   -2.974E+02                                 F               0         Blade 1 Y force, node 36, N
        108   -1.487E+03                                 F               0         Blade 1 Z force, node 36, N
        109    6.570E+03                                 F               0         Blade 1 X force, node 37, N
        110   -3.247E+02                                 F               0         Blade 1 Y force, node 37, N
        111   -1.785E+03                                 F               0         Blade 1 Z force, node 37, N
        112    4.793E+03                                 F               0         Blade 1 X force, node 38, N
        113   -2.152E+02                                 F               0         Blade 1 Y force, node 38, N
        114   -1.304E+03                                 F               0         Blade 1 Z force, node 38, N
        115    5.883E+03                                 F               0         Blade 1 X force, node 39, N
        116   -2.425E+02                                 F               0         Blade 1 Y force, node 39, N
        117   -1.602E+03                                 F               0         Blade 1 Z force, node 39, N
        118    5.023E+03                                 F               0         Blade 1 X force, node 40, N
        119   -1.893E+02                                 F               0         Blade 1 Y force, node 40, N
        120   -1.369E+03                                 F               0         Blade 1 Z force, node 40, N
        121    7.144E+03                                 F               0         Blade 1 X force, node 41, N
        122   -2.407E+02                                 F               0         Blade 1 Y force, node 41, N
        123   -1.950E+03                                 F               0         Blade 1 Z force, node 41, N
        124    6.282E+03                                 F               0         Blade 1 X force, node 42, N
        125   -1.872E+02                                 F               0         Blade 1 Y force, node 42, N
        126   -1.717E+03                                 F               0         Blade 1 Z force, node 42, N
        127    6.414E+03                                 F               0         Blade 1 X force, node 43, N
        128   -1.685E+02                                 F               0         Blade 1 Y force, node 43, N
        129   -1.755E+03                                 F               0         Blade 1 Z force, node 43, N
        130    6.580E+03                                 F               0         Blade 1 X force, node 44, N
        131   -1.507E+02                                 F               0         Blade 1 Y force, node 44, N
        132   -1.802E+03                                 F               0         Blade 1 Z force, node 44, N
        133    6.643E+03                                 F               0         Blade 1 X force, node 45, N
        134   -1.306E+02                                 F               0         Blade 1 Y force, node 45, N
        135   -1.821E+03                                 F               0         Blade 1 Z force, node 45, N
        136    6.810E+03                                 F               0         Blade 1 X force, node 46, N
        137   -1.127E+02                                 F               0         Blade 1 Y force, node 46, N
        138   -1.868E+03                                 F               0         Blade 1 Z force, node 46, N
        139    8.161E+03                                 F               0         Blade 1 X force, node 47, N
        140   -1.090E+02                                 F               0         Blade 1 Y force, node 47, N
        141   -2.241E+03                                 F               0         Blade 1 Z force, node 47, N
        142    5.856E+03                                 F               0         Blade 1 X force, node 48, N
        143   -6.045E+01                                 F               0         Blade 1 Y force, node 48, N
        144   -1.610E+03                                 F               0         Blade 1 Z force, node 48, N
        145    7.205E+03                                 F               0         Blade 1 X force, node 49, N
        146   -5.663E+01                                 F               0         Blade 1 Y force, node 49, N
        147   -1.982E+03                                 F               0         Blade 1 Z force, node 49, N
        148    6.170E+03                                 F               0         Blade 1 X force, node 50, N
        149   -3.358E+01                                 F               0         Blade 1 Y force, node 50, N
        150   -1.698E+03                                 F               0         Blade 1 Z force, node 50, N
        151    8.636E+03                                 F               0         Blade 1 X force, node 51, N
        152   -2.351E+01                                 F               0         Blade 1 Y force, node 51, N
        153   -2.379E+03                                 F               0         Blade 1 Z force, node 51, N
        154    7.603E+03                                 F               0         Blade 1 X force, node 52, N
        155   -5.553E-01                                 F               0         Blade 1 Y force, node 52, N
        156   -2.096E+03                                 F               0         Blade 1 Z force, node 52, N
        157    7.736E+03                                 F               0         Blade 1 X force, node 53, N
        158    1.808E+01                                 F               0         Blade 1 Y force, node 53, N
        159   -2.135E+03                                 F               0         Blade 1 Z force, node 53, N
        160    7.956E+03                                 F               0         Blade 1 X force, node 54, N
        161    3.720E+01                                 F               0         Blade 1 Y force, node 54, N
        162   -2.197E+03                                 F               0         Blade 1 Z force, node 54, N
        163    7.916E+03                                 F               0         Blade 1 X force, node 55, N
        164    5.496E+01                                 F               0         Blade 1 Y force, node 55, N
        165   -2.187E+03                                 F               0         Blade 1 Z force, node 55, N
        166    8.135E+03                                 F               0         Blade 1 X force, node 56, N
        167    7.416E+01                                 F               0         Blade 1 Y force, node 56, N
        168   -2.249E+03                                 F               0         Blade 1 Z force, node 56, N
        169    9.764E+03                                 F               0         Blade 1 X force, node 57, N
        170    1.111E+02                                 F               0         Blade 1 Y force, node 57, N
        171   -2.702E+03                                 F               0         Blade 1 Z force, node 57, N
        172    6.904E+03                                 F               0         Blade 1 X force, node 58, N
        173    9.343E+01                                 F               0         Blade 1 Y force, node 58, N
        174   -1.911E+03                                 F               0         Blade 1 Z force, node 58, N
        175    8.534E+03                                 F               0         Blade 1 X force, node 59, N
        176    1.304E+02                                 F               0         Blade 1 Y force, node 59, N
        177   -2.364E+03                                 F               0         Blade 1 Z force, node 59, N
        178    7.340E+03                                 F               0         Blade 1 X force, node 60, N
        179    1.249E+02                                 F               0         Blade 1 Y force, node 60, N
        180   -2.034E+03                                 F               0         Blade 1 Z force, node 60, N
        181    1.013E+04                                 F               0         Blade 1 X force, node 61, N
        182    1.923E+02                                 F               0         Blade 1 Y force, node 61, N
        183   -2.808E+03                                 F               0         Blade 1 Z force, node 61, N
        184    8.929E+03                                 F               0         Blade 1 X force, node 62, N