
Linearized model: Predictions were generated on 19-Dec-2023 at 09:27:32 using OpenFAST, compiled as a 64-bit application using single precision at commit v3.5.1
 linked with  NWTC Subroutine Library; ElastoDyn; InflowWind; AeroDyn; ServoDyn; HydroDyn; MoorDyn (v2.0.0, 2023-09-18)

Description from the FAST input file: CCT-9 Campign 4 model. Input files to be run with OpenFAST 3.5.0. GitHub branch from Lu Wang (https://github.com/luwang00/openfast/tree/dev) compiled on March 7, 2023.

Simulation information:
   Simulation time:                  1007.7000 s
   Rotor Speed:                         1.0407 rad/s
   Azimuth:                             0.5771 rad
   Wind Speed:                         12.0000 m/s
   Number of continuous states:         0
   Number of discrete states:           0
   Number of constraint states:         0
   Number of inputs:                   54
   Number of outputs:                   0
   Jacobians included in this file?    No

Order of inputs:
     Column   Operating Point                     Rotating Frame? Derivative Order Description
   ---------- ---------------                     --------------- ---------------- -----------
          1    1.018E+01                                 F               0         CoupledKinematics X translation displacement, node 1, m
          2    8.685E-01                                 F               0         CoupledKinematics Y translation displacement, node 1, m
          3   -6.731E+00                                 F               0         CoupledKinematics Z translation displacement, node 1, m
          4    9.313E+00                                 F               0         CoupledKinematics X translation displacement, node 2, m
          5    7.624E-01                                 F               0         CoupledKinematics Y translation displacement, node 2, m
          6   -2.272E+00                                 F               0         CoupledKinematics Z translation displacement, node 2, m
          7    1.080E+01                                 F               0         CoupledKinematics X translation displacement, node 3, m
          8   -5.094E-01                                 F               0         CoupledKinematics Y translation displacement, node 3, m
          9    9.080E+00                                 F               0         CoupledKinematics Z translation displacement, node 3, m
         10    9.881E-01,  1.491E-02, -1.529E-01         F               0         CoupledKinematics X orientation angle, node 1, rad
         11   -8.540E-03,  9.991E-01,  4.225E-02         F               0         CoupledKinematics Y orientation angle, node 1, rad
         12    1.533E-01, -4.044E-02,  9.873E-01         F               0         CoupledKinematics Z orientation angle, node 1, rad
         13    9.881E-01,  1.491E-02, -1.529E-01         F               0         CoupledKinematics X orientation angle, node 2, rad
         14   -8.540E-03,  9.991E-01,  4.225E-02         F               0         CoupledKinematics Y orientation angle, node 2, rad
         15    1.533E-01, -4.044E-02,  9.873E-01         F               0         CoupledKinematics Z orientation angle, node 2, rad
         16    9.881E-01,  1.491E-02, -1.529E-01         F               0         CoupledKinematics X orientation angle, node 3, rad
         17   -8.540E-03,  9.991E-01,  4.225E-02         F               0         CoupledKinematics Y orientation angle, node 3, rad
         18    1.533E-01, -4.044E-02,  9.873E-01         F               0         CoupledKinematics Z orientation angle, node 3, rad
         19   -1.490E-02                                 F               0         CoupledKinematics X translation velocity, node 1, m/s
         20    1.293E-02                                 F               0         CoupledKinematics Y translation velocity, node 1, m/s
         21   -4.564E-02                                 F               0         CoupledKinematics Z translation velocity, node 1, m/s
         22    1.417E-02                                 F               0         CoupledKinematics X translation velocity, node 2, m/s
         23    9.127E-03                                 F               0         CoupledKinematics Y translation velocity, node 2, m/s
         24    5.228E-02                                 F               0         CoupledKinematics Z translation velocity, node 2, m/s
         25   -6.890E-04                                 F               0         CoupledKinematics X translation velocity, node 3, m/s
         26    2.290E-02                                 F               0         CoupledKinematics Y translation velocity, node 3, m/s
         27    2.375E-03                                 F               0         CoupledKinematics Z translation velocity, node 3, m/s
         28    9.516E-04                                 F               0         CoupledKinematics X rotation velocity, node 1, rad/s
         29    3.611E-06                                 F               0         CoupledKinematics Y rotation velocity, node 1, rad/s
         30   -2.824E-04                                 F               0         CoupledKinematics Z rotation velocity, node 1, rad/s
         31    9.516E-04                                 F               0         CoupledKinematics X rotation velocity, node 2, rad/s
         32    3.611E-06                                 F               0         CoupledKinematics Y rotation velocity, node 2, rad/s
         33   -2.824E-04                                 F               0         CoupledKinematics Z rotation velocity, node 2, rad/s
         34    9.516E-04                                 F               0         CoupledKinematics X rotation velocity, node 3, rad/s
         35    3.611E-06                                 F               0         CoupledKinematics Y rotation velocity, node 3, rad/s
         36   -2.824E-04                                 F               0         CoupledKinematics Z rotation velocity, node 3, rad/s
         37    1.616E-03                                 F               0         CoupledKinematics X translation acceleration, node 1, m/s^2
         38    6.705E-04                                 F               0         CoupledKinematics Y translation acceleration, node 1, m/s^2
         39   -4.163E-04                                 F               0         CoupledKinematics Z translation acceleration, node 1, m/s^2
         40   -1.311E-03                                 F               0         CoupledKinematics X translation acceleration, node 2, m/s^2
         41    6.402E-04                                 F               0         CoupledKinematics Y translation acceleration, node 2, m/s^2
         42   -3.093E-03                                 F               0         CoupledKinematics Z translation acceleration, node 2, m/s^2
         43    4.529E-04                                 F               0         CoupledKinematics X translation acceleration, node 3, m/s^2
         44   -1.556E-03                                 F               0         CoupledKinematics Y translation acceleration, node 3, m/s^2
         45   -4.073E-05                                 F               0         CoupledKinematics Z translation acceleration, node 3, m/s^2
         46   -2.627E-05                                 F               0         CoupledKinematics X rotation acceleration, node 1, rad/s^2
         47    1.899E-05                                 F               0         CoupledKinematics Y rotation acceleration, node 1, rad/s^2
         48    2.927E-05                                 F               0         CoupledKinematics Z rotation acceleration, node 1, rad/s^2
         49   -2.627E-05                                 F               0         CoupledKinematics X rotation acceleration, node 2, rad/s^2
         50    1.899E-05                                 F               0         CoupledKinematics Y rotation acceleration, node 2, rad/s^2
         51    2.927E-05                                 F               0         CoupledKinematics Z rotation acceleration, node 2, rad/s^2
         52   -2.627E-05                                 F               0         CoupledKinematics X rotation acceleration, node 3, rad/s^2
         53    1.899E-05                                 F               0         CoupledKinematics Y rotation acceleration, node 3, rad/s^2
         54    2.927E-05                                 F               0         CoupledKinematics Z rotation acceleration, node 3, rad/s^2


Linearized state matrices:

