
Linearized model: Predictions were generated on 19-Dec-2023 at 09:27:32 using OpenFAST, compiled as a 64-bit application using single precision at commit v3.5.1
 linked with  NWTC Subroutine Library; ElastoDyn; InflowWind; AeroDyn; ServoDyn; HydroDyn; MoorDyn (v2.0.0, 2023-09-18)

Description from the FAST input file: CCT-9 Campign 4 model. Input files to be run with OpenFAST 3.5.0. GitHub branch from Lu Wang (https://github.com/luwang00/openfast/tree/dev) compiled on March 7, 2023.

Simulation information:
   Simulation time:                  1005.9750 s
   Rotor Speed:                         1.0410 rad/s
   Azimuth:                             5.0648 rad
   Wind Speed:                         12.0000 m/s
   Number of continuous states:         0
   Number of discrete states:           0
   Number of constraint states:         0
   Number of inputs:                   54
   Number of outputs:                   0
   Jacobians included in this file?    No

Order of inputs:
     Column   Operating Point                     Rotating Frame? Derivative Order Description
   ---------- ---------------                     --------------- ---------------- -----------
          1    1.022E+01                                 F               0         CoupledKinematics X translation displacement, node 1, m
          2    8.523E-01                                 F               0         CoupledKinematics Y translation displacement, node 1, m
          3   -6.655E+00                                 F               0         CoupledKinematics Z translation displacement, node 1, m
          4    9.281E+00                                 F               0         CoupledKinematics X translation displacement, node 2, m
          5    7.521E-01                                 F               0         CoupledKinematics Y translation displacement, node 2, m
          6   -2.361E+00                                 F               0         CoupledKinematics Z translation displacement, node 2, m
          7    1.080E+01                                 F               0         CoupledKinematics X translation displacement, node 3, m
          8   -5.572E-01                                 F               0         CoupledKinematics Y translation displacement, node 3, m
          9    9.073E+00                                 F               0         CoupledKinematics Z translation displacement, node 3, m
         10    9.881E-01,  1.530E-02, -1.529E-01         F               0         CoupledKinematics X orientation angle, node 1, rad
         11   -9.183E-03,  9.991E-01,  4.065E-02         F               0         CoupledKinematics Y orientation angle, node 1, rad
         12    1.533E-01, -3.876E-02,  9.874E-01         F               0         CoupledKinematics Z orientation angle, node 1, rad
         13    9.881E-01,  1.530E-02, -1.529E-01         F               0         CoupledKinematics X orientation angle, node 2, rad
         14   -9.183E-03,  9.991E-01,  4.065E-02         F               0         CoupledKinematics Y orientation angle, node 2, rad
         15    1.533E-01, -3.876E-02,  9.874E-01         F               0         CoupledKinematics Z orientation angle, node 2, rad
         16    9.881E-01,  1.530E-02, -1.529E-01         F               0         CoupledKinematics X orientation angle, node 3, rad
         17   -9.183E-03,  9.991E-01,  4.065E-02         F               0         CoupledKinematics Y orientation angle, node 3, rad
         18    1.533E-01, -3.876E-02,  9.874E-01         F               0         CoupledKinematics Z orientation angle, node 3, rad
         19   -1.669E-02                                 F               0         CoupledKinematics X translation velocity, node 1, m/s
         20    1.116E-02                                 F               0         CoupledKinematics Y translation velocity, node 1, m/s
         21   -4.472E-02                                 F               0         CoupledKinematics Z translation velocity, node 1, m/s
         22    1.552E-02                                 F               0         CoupledKinematics X translation velocity, node 2, m/s
         23    7.545E-03                                 F               0         CoupledKinematics Y translation velocity, node 2, m/s
         24    5.418E-02                                 F               0         CoupledKinematics Z translation velocity, node 2, m/s
         25   -6.944E-04                                 F               0         CoupledKinematics X translation velocity, node 3, m/s
         26    2.370E-02                                 F               0         CoupledKinematics Y translation velocity, node 3, m/s
         27    5.474E-03                                 F               0         CoupledKinematics Z translation velocity, node 3, m/s
         28    9.607E-04                                 F               0         CoupledKinematics X rotation velocity, node 1, rad/s
         29    2.335E-05                                 F               0         CoupledKinematics Y rotation velocity, node 1, rad/s
         30   -3.120E-04                                 F               0         CoupledKinematics Z rotation velocity, node 1, rad/s
         31    9.607E-04                                 F               0         CoupledKinematics X rotation velocity, node 2, rad/s
         32    2.335E-05                                 F               0         CoupledKinematics Y rotation velocity, node 2, rad/s
         33   -3.120E-04                                 F               0         CoupledKinematics Z rotation velocity, node 2, rad/s
         34    9.607E-04                                 F               0         CoupledKinematics X rotation velocity, node 3, rad/s
         35    2.335E-05                                 F               0         CoupledKinematics Y rotation velocity, node 3, rad/s
         36   -3.120E-04                                 F               0         CoupledKinematics Z rotation velocity, node 3, rad/s
         37    1.805E-04                                 F               0         CoupledKinematics X translation acceleration, node 1, m/s^2
         38    1.371E-03                                 F               0         CoupledKinematics Y translation acceleration, node 1, m/s^2
         39   -2.921E-03                                 F               0         CoupledKinematics Z translation acceleration, node 1, m/s^2
         40    3.425E-05                                 F               0         CoupledKinematics X translation acceleration, node 2, m/s^2
         41    1.094E-03                                 F               0         CoupledKinematics Y translation acceleration, node 2, m/s^2
         42    1.142E-03                                 F               0         CoupledKinematics Z translation acceleration, node 2, m/s^2
         43    5.472E-05                                 F               0         CoupledKinematics X translation acceleration, node 3, m/s^2
         44    5.844E-04                                 F               0         CoupledKinematics Y translation acceleration, node 3, m/s^2
         45   -1.310E-03                                 F               0         CoupledKinematics Z translation acceleration, node 3, m/s^2
         46    3.959E-05                                 F               0         CoupledKinematics X rotation acceleration, node 1, rad/s^2
         47   -4.335E-06                                 F               0         CoupledKinematics Y rotation acceleration, node 1, rad/s^2
         48    1.252E-06                                 F               0         CoupledKinematics Z rotation acceleration, node 1, rad/s^2
         49    3.959E-05                                 F               0         CoupledKinematics X rotation acceleration, node 2, rad/s^2
         50   -4.335E-06                                 F               0         CoupledKinematics Y rotation acceleration, node 2, rad/s^2
         51    1.252E-06                                 F               0         CoupledKinematics Z rotation acceleration, node 2, rad/s^2
         52    3.959E-05                                 F               0         CoupledKinematics X rotation acceleration, node 3, rad/s^2
         53   -4.335E-06                                 F               0         CoupledKinematics Y rotation acceleration, node 3, rad/s^2
         54    1.252E-06                                 F               0         CoupledKinematics Z rotation acceleration, node 3, rad/s^2


Linearized state matrices:

