
Linearized model: Predictions were generated on 19-Dec-2023 at 09:27:32 using OpenFAST, compiled as a 64-bit application using single precision at commit v3.5.1
 linked with  NWTC Subroutine Library; ElastoDyn; InflowWind; AeroDyn; ServoDyn; HydroDyn; MoorDyn (v2.0.0, 2023-09-18)

Description from the FAST input file: CCT-9 Campign 4 model. Input files to be run with OpenFAST 3.5.0. GitHub branch from Lu Wang (https://github.com/luwang00/openfast/tree/dev) compiled on March 7, 2023.

Simulation information:
   Simulation time:                  1003.7500 s
   Rotor Speed:                         1.0411 rad/s
   Azimuth:                             2.7484 rad
   Wind Speed:                         12.0000 m/s
   Number of continuous states:         0
   Number of discrete states:           0
   Number of constraint states:         0
   Number of inputs:                 1746
   Number of outputs:                   4
   Jacobians included in this file?    No

Order of inputs:
     Column   Operating Point                     Rotating Frame? Derivative Order Description
   ---------- ---------------                     --------------- ---------------- -----------
          1    1.511E+01                                 F               0         Tower X translation displacement, node 1, m
          2   -8.801E-01                                 F               0         Tower Y translation displacement, node 1, m
          3   -4.283E-01                                 F               0         Tower Z translation displacement, node 1, m
          4    1.702E+01                                 F               0         Tower X translation displacement, node 2, m
          5   -1.337E+00                                 F               0         Tower Y translation displacement, node 2, m
          6   -5.849E-01                                 F               0         Tower Z translation displacement, node 2, m
          7    1.896E+01                                 F               0         Tower X translation displacement, node 3, m
          8   -1.797E+00                                 F               0         Tower Y translation displacement, node 3, m
          9   -7.471E-01                                 F               0         Tower Z translation displacement, node 3, m
         10    2.093E+01                                 F               0         Tower X translation displacement, node 4, m
         11   -2.260E+00                                 F               0         Tower Y translation displacement, node 4, m
         12   -9.136E-01                                 F               0         Tower Z translation displacement, node 4, m
         13    2.292E+01                                 F               0         Tower X translation displacement, node 5, m
         14   -2.726E+00                                 F               0         Tower Y translation displacement, node 5, m
         15   -1.084E+00                                 F               0         Tower Z translation displacement, node 5, m
         16    2.493E+01                                 F               0         Tower X translation displacement, node 6, m
         17   -3.195E+00                                 F               0         Tower Y translation displacement, node 6, m
         18   -1.257E+00                                 F               0         Tower Z translation displacement, node 6, m
         19    2.695E+01                                 F               0         Tower X translation displacement, node 7, m
         20   -3.664E+00                                 F               0         Tower Y translation displacement, node 7, m
         21   -1.432E+00                                 F               0         Tower Z translation displacement, node 7, m
         22    2.898E+01                                 F               0         Tower X translation displacement, node 8, m
         23   -4.136E+00                                 F               0         Tower Y translation displacement, node 8, m
         24   -1.610E+00                                 F               0         Tower Z translation displacement, node 8, m
         25    3.102E+01                                 F               0         Tower X translation displacement, node 9, m
         26   -4.608E+00                                 F               0         Tower Y translation displacement, node 9, m
         27   -1.789E+00                                 F               0         Tower Z translation displacement, node 9, m
         28    3.307E+01                                 F               0         Tower X translation displacement, node 10, m
         29   -5.081E+00                                 F               0         Tower Y translation displacement, node 10, m
         30   -1.968E+00                                 F               0         Tower Z translation displacement, node 10, m
         31    3.512E+01                                 F               0         Tower X translation displacement, node 11, m
         32   -5.555E+00                                 F               0         Tower Y translation displacement, node 11, m
         33   -2.149E+00                                 F               0         Tower Z translation displacement, node 11, m
         34    9.881E-01,  1.583E-02, -1.528E-01         F               0         Tower X orientation angle, node 1, rad
         35   -1.001E-02,  9.992E-01,  3.883E-02         F               0         Tower Y orientation angle, node 1, rad
         36    1.533E-01, -3.684E-02,  9.875E-01         F               0         Tower Z orientation angle, node 1, rad
         37    9.877E-01,  1.593E-02, -1.554E-01         F               0         Tower X orientation angle, node 2, rad
         38   -9.956E-03,  9.992E-01,  3.915E-02         F               0         Tower Y orientation angle, node 2, rad
         39    1.559E-01, -3.712E-02,  9.871E-01         F               0         Tower Z orientation angle, node 2, rad
         40    9.874E-01,  1.602E-02, -1.577E-01         F               0         Tower X orientation angle, node 3, rad
         41   -9.910E-03,  9.992E-01,  3.944E-02         F               0         Tower Y orientation angle, node 3, rad
         42    1.582E-01, -3.738E-02,  9.867E-01         F               0         Tower Z orientation angle, node 3, rad
         43    9.870E-01,  1.609E-02, -1.596E-01         F               0         Tower X orientation angle, node 4, rad
         44   -9.869E-03,  9.992E-01,  3.970E-02         F               0         Tower Y orientation angle, node 4, rad
         45    1.601E-01, -3.761E-02,  9.864E-01         F               0         Tower Z orientation angle, node 4, rad
         46    9.868E-01,  1.615E-02, -1.612E-01         F               0         Tower X orientation angle, node 5, rad
         47   -9.833E-03,  9.992E-01,  3.991E-02         F               0         Tower Y orientation angle, node 5, rad
         48    1.617E-01, -3.780E-02,  9.861E-01         F               0         Tower Z orientation angle, node 5, rad
         49    9.866E-01,  1.620E-02, -1.626E-01         F               0         Tower X orientation angle, node 6, rad
         50   -9.803E-03,  9.991E-01,  4.010E-02         F               0         Tower Y orientation angle, node 6, rad
         51    1.631E-01, -3.796E-02,  9.859E-01         F               0         Tower Z orientation angle, node 6, rad
         52    9.864E-01,  1.624E-02, -1.636E-01         F               0         Tower X orientation angle, node 7, rad
         53   -9.779E-03,  9.991E-01,  4.024E-02         F               0         Tower Y orientation angle, node 7, rad
         54    1.641E-01, -3.809E-02,  9.857E-01         F               0         Tower Z orientation angle, node 7, rad
         55    9.863E-01,  1.627E-02, -1.643E-01         F               0         Tower X orientation angle, node 8, rad
         56   -9.760E-03,  9.991E-01,  4.035E-02         F               0         Tower Y orientation angle, node 8, rad
         57    1.649E-01, -3.820E-02,  9.856E-01         F               0         Tower Z orientation angle, node 8, rad
         58    9.862E-01,  1.629E-02, -1.649E-01         F               0         Tower X orientation angle, node 9, rad
         59   -9.747E-03,  9.991E-01,  4.044E-02         F               0         Tower Y orientation angle, node 9, rad
         60    1.654E-01, -3.827E-02,  9.855E-01         F               0         Tower Z orientation angle, node 9, rad
         61    9.861E-01,  1.631E-02, -1.652E-01         F               0         Tower X orientation angle, node 10, rad
         62   -9.738E-03,  9.991E-01,  4.049E-02         F               0         Tower Y orientation angle, node 10, rad
         63    1.657E-01, -3.832E-02,  9.854E-01         F               0         Tower Z orientation angle, node 10, rad
         64    9.861E-01,  1.631E-02, -1.654E-01         F               0         Tower X orientation angle, node 11, rad
         65   -9.733E-03,  9.991E-01,  4.052E-02         F               0         Tower Y orientation angle, node 11, rad
         66    1.659E-01, -3.835E-02,  9.854E-01         F               0         Tower Z orientation angle, node 11, rad
         67    7.147E-04                                 F               0         Tower X translation velocity, node 1, m/s
         68   -1.293E-02                                 F               0         Tower Y translation velocity, node 1, m/s
         69    4.858E-03                                 F               0         Tower Z translation velocity, node 1, m/s
         70    1.214E-03                                 F               0         Tower X translation velocity, node 2, m/s
         71   -2.189E-02                                 F               0         Tower Y translation velocity, node 2, m/s
         72    4.444E-03                                 F               0         Tower Z translation velocity, node 2, m/s
         73    1.689E-03                                 F               0         Tower X translation velocity, node 3, m/s
         74   -3.100E-02                                 F               0         Tower Y translation velocity, node 3, m/s
         75    4.025E-03                                 F               0         Tower Z translation velocity, node 3, m/s
         76    2.143E-03                                 F               0         Tower X translation velocity, node 4, m/s
         77   -4.023E-02                                 F               0         Tower Y translation velocity, node 4, m/s
         78    3.600E-03                                 F               0         Tower Z translation velocity, node 4, m/s
         79    2.578E-03                                 F               0         Tower X translation velocity, node 5, m/s
         80   -4.956E-02                                 F               0         Tower Y translation velocity, node 5, m/s
         81    3.172E-03                                 F               0         Tower Z translation velocity, node 5, m/s
         82    2.994E-03                                 F               0         Tower X translation velocity, node 6, m/s
         83   -5.899E-02                                 F               0         Tower Y translation velocity, node 6, m/s
         84    2.742E-03                                 F               0         Tower Z translation velocity, node 6, m/s
         85    3.393E-03                                 F               0         Tower X translation velocity, node 7, m/s
         86   -6.847E-02                                 F               0         Tower Y translation velocity, node 7, m/s
         87    2.309E-03                                 F               0         Tower Z translation velocity, node 7, m/s
         88    3.778E-03                                 F               0         Tower X translation velocity, node 8, m/s
         89   -7.802E-02                                 F               0         Tower Y translation velocity, node 8, m/s
         90    1.876E-03                                 F               0         Tower Z translation velocity, node 8, m/s
         91    4.150E-03                                 F               0         Tower X translation velocity, node 9, m/s
         92   -8.761E-02                                 F               0         Tower Y translation velocity, node 9, m/s
         93    1.441E-03                                 F               0         Tower Z translation velocity, node 9, m/s
         94    4.513E-03                                 F               0         Tower X translation velocity, node 10, m/s
         95   -9.723E-02                                 F               0         Tower Y translation velocity, node 10, m/s
         96    1.007E-03                                 F               0         Tower Z translation velocity, node 10, m/s
         97    4.869E-03                                 F               0         Tower X translation velocity, node 11, m/s
         98   -1.069E-01                                 F               0         Tower Y translation velocity, node 11, m/s
         99    5.718E-04                                 F               0         Tower Z translation velocity, node 11, m/s
        100    3.657E+01                                 F               0         Hub X translation displacement, node 1, m
        101   -6.032E+00                                 F               0         Hub Y translation displacement, node 1, m
        102   -4.771E-01                                 F               0         Hub Z translation displacement, node 1, m
        103    9.633E-01,  2.023E-02, -2.675E-01         F               0         Hub X orientation angle, node 1, rad
        104    1.117E-01, -9.369E-01,  3.314E-01         F               0         Hub Y orientation angle, node 1, rad
        105   -2.439E-01, -3.491E-01, -9.048E-01         F               0         Hub Z orientation angle, node 1, rad
        106    1.004E+00                                 F               0         Hub X rotation velocity, node 1, rad/s
        107    2.111E-02                                 F               0         Hub Y rotation velocity, node 1, rad/s
        108   -2.788E-01                                 F               0         Hub Z rotation velocity, node 1, rad/s
        109    9.596E-01,  4.802E-02, -2.772E-01         F               0         Blade root 1 X orientation angle, node 1, rad
        110    1.402E-01, -9.358E-01,  3.233E-01         F               0         Blade root 1 Y orientation angle, node 1, rad
        111   -2.439E-01, -3.491E-01, -9.048E-01         F               0         Blade root 1 Z orientation angle, node 1, rad
        112    9.708E-01,  1.530E-02, -2.392E-01         F               0         Blade root 2 X orientation angle, node 1, rad
        113   -2.384E-01,  1.666E-01, -9.568E-01         F               0         Blade root 2 Y orientation angle, node 1, rad
        114    2.522E-02,  9.859E-01,  1.654E-01         F               0         Blade root 2 Z orientation angle, node 1, rad
        115    9.583E-01, -2.643E-03, -2.857E-01         F               0         Blade root 3 X orientation angle, node 1, rad
        116    1.839E-01,  7.710E-01,  6.097E-01         F               0         Blade root 3 Y orientation angle, node 1, rad
        117    2.187E-01, -6.368E-01,  7.394E-01         F               0         Blade root 3 Z orientation angle, node 1, rad
        118    3.464E+01                                 F               0         Blade 1 X translation displacement, node 1, m
        119   -7.966E+00                                 F               0         Blade 1 Y translation displacement, node 1, m
        120   -1.100E+01                                 F               0         Blade 1 Z translation displacement, node 1, m
        121    3.417E+01                                 F               0         Blade 1 X translation displacement, node 2, m
        122   -8.433E+00                                 F               0         Blade 1 Y translation displacement, node 2, m
        123   -1.353E+01                                 F               0         Blade 1 Z translation displacement, node 2, m
        124    2.785E+01                                 F               0         Blade 1 X translation displacement, node 3, m
        125   -1.477E+01                                 F               0         Blade 1 Y translation displacement, node 3, m
        126   -4.801E+01                                 F               0         Blade 1 Z translation displacement, node 3, m
        127    2.650E+01                                 F               0         Blade 1 X translation displacement, node 4, m
        128   -1.612E+01                                 F               0         Blade 1 Y translation displacement, node 4, m
        129   -5.536E+01                                 F               0         Blade 1 Z translation displacement, node 4, m
        130    2.515E+01                                 F               0         Blade 1 X translation displacement, node 5, m
        131   -1.747E+01                                 F               0         Blade 1 Y translation displacement, node 5, m
        132   -6.270E+01                                 F               0         Blade 1 Z translation displacement, node 5, m
        133    2.381E+01                                 F               0         Blade 1 X translation displacement, node 6, m
        134   -1.882E+01                                 F               0         Blade 1 Y translation displacement, node 6, m
        135   -7.005E+01                                 F               0         Blade 1 Z translation displacement, node 6, m
        136    2.246E+01                                 F               0         Blade 1 X translation displacement, node 7, m
        137   -2.017E+01                                 F               0         Blade 1 Y translation displacement, node 7, m
        138   -7.739E+01                                 F               0         Blade 1 Z translation displacement, node 7, m
        139    2.111E+01                                 F               0         Blade 1 X translation displacement, node 8, m
        140   -2.152E+01                                 F               0         Blade 1 Y translation displacement, node 8, m
        141   -8.474E+01                                 F               0         Blade 1 Z translation displacement, node 8, m
        142    1.976E+01                                 F               0         Blade 1 X translation displacement, node 9, m
        143   -2.287E+01                                 F               0         Blade 1 Y translation displacement, node 9, m
        144   -9.209E+01                                 F               0         Blade 1 Z translation displacement, node 9, m
        145    1.842E+01                                 F               0         Blade 1 X translation displacement, node 10, m
        146   -2.422E+01                                 F               0         Blade 1 Y translation displacement, node 10, m
        147   -9.943E+01                                 F               0         Blade 1 Z translation displacement, node 10, m
        148    1.707E+01                                 F               0         Blade 1 X translation displacement, node 11, m
        149   -2.557E+01                                 F               0         Blade 1 Y translation displacement, node 11, m
        150   -1.068E+02                                 F               0         Blade 1 Z translation displacement, node 11, m
        151    1.572E+01                                 F               0         Blade 1 X translation displacement, node 12, m
        152   -2.692E+01                                 F               0         Blade 1 Y translation displacement, node 12, m
        153   -1.141E+02                                 F               0         Blade 1 Z translation displacement, node 12, m
        154    1.437E+01                                 F               0         Blade 1 X translation displacement, node 13, m
        155   -2.827E+01                                 F               0         Blade 1 Y translation displacement, node 13, m
        156   -1.215E+02                                 F               0         Blade 1 Z translation displacement, node 13, m
        157    1.303E+01                                 F               0         Blade 1 X translation displacement, node 14, m
        158   -2.962E+01                                 F               0         Blade 1 Y translation displacement, node 14, m
        159   -1.288E+02                                 F               0         Blade 1 Z translation displacement, node 14, m
        160    1.168E+01                                 F               0         Blade 1 X translation displacement, node 15, m
        161   -3.097E+01                                 F               0         Blade 1 Y translation displacement, node 15, m
        162   -1.362E+02                                 F               0         Blade 1 Z translation displacement, node 15, m
        163    1.033E+01                                 F               0         Blade 1 X translation displacement, node 16, m
        164   -3.232E+01                                 F               0         Blade 1 Y translation displacement, node 16, m
        165   -1.435E+02                                 F               0         Blade 1 Z translation displacement, node 16, m
        166    8.982E+00                                 F               0         Blade 1 X translation displacement, node 17, m
        167   -3.367E+01                                 F               0         Blade 1 Y translation displacement, node 17, m
        168   -1.509E+02                                 F               0         Blade 1 Z translation displacement, node 17, m
        169    7.635E+00                                 F               0         Blade 1 X translation displacement, node 18, m
        170   -3.503E+01                                 F               0         Blade 1 Y translation displacement, node 18, m
        171   -1.582E+02                                 F               0         Blade 1 Z translation displacement, node 18, m
        172    6.287E+00                                 F               0         Blade 1 X translation displacement, node 19, m
        173   -3.638E+01                                 F               0         Blade 1 Y translation displacement, node 19, m
        174   -1.655E+02                                 F               0         Blade 1 Z translation displacement, node 19, m
        175    4.939E+00                                 F               0         Blade 1 X translation displacement, node 20, m
        176   -3.773E+01                                 F               0         Blade 1 Y translation displacement, node 20, m
        177   -1.729E+02                                 F               0         Blade 1 Z translation displacement, node 20, m
        178    3.592E+00                                 F               0         Blade 1 X translation displacement, node 21, m
        179   -3.908E+01                                 F               0         Blade 1 Y translation displacement, node 21, m
        180   -1.802E+02                                 F               0         Blade 1 Z translation displacement, node 21, m
        181    2.244E+00                                 F               0         Blade 1 X translation displacement, node 22, m
        182   -4.043E+01                                 F               0         Blade 1 Y translation displacement, node 22, m
        183   -1.876E+02                                 F               0         Blade 1 Z translation displacement, node 22, m
        184    8.966E-01                                 F               0         Blade 1 X translation displacement, node 23, m
        185   -4.178E+01                                 F               0         Blade 1 Y translation displacement, node 23, m
        186   -1.949E+02                                 F               0         Blade 1 Z translation displacement, node 23, m
        187   -4.509E-01                                 F               0         Blade 1 X translation displacement, node 24, m
        188   -4.313E+01                                 F               0         Blade 1 Y translation displacement, node 24, m
        189   -2.023E+02                                 F               0         Blade 1 Z translation displacement, node 24, m
        190   -1.798E+00                                 F               0         Blade 1 X translation displacement, node 25, m
        191   -4.448E+01                                 F               0         Blade 1 Y translation displacement, node 25, m
        192   -2.096E+02                                 F               0         Blade 1 Z translation displacement, node 25, m
        193   -3.146E+00                                 F               0         Blade 1 X translation displacement, node 26, m
        194   -4.583E+01                                 F               0         Blade 1 Y translation displacement, node 26, m
        195   -2.170E+02                                 F               0         Blade 1 Z translation displacement, node 26, m
        196   -4.494E+00                                 F               0         Blade 1 X translation displacement, node 27, m
        197   -4.718E+01                                 F               0         Blade 1 Y translation displacement, node 27, m
        198   -2.243E+02                                 F               0         Blade 1 Z translation displacement, node 27, m
        199   -5.636E+00                                 F               0         Blade 1 X translation displacement, node 28, m
        200   -4.832E+01                                 F               0         Blade 1 Y translation displacement, node 28, m
        201   -2.305E+02                                 F               0         Blade 1 Z translation displacement, node 28, m
        202    7.901E-01,  4.695E-01, -3.941E-01         F               0         Blade 1 X orientation angle, node 1, rad
        203    5.624E-01, -8.110E-01,  1.613E-01         F               0         Blade 1 Y orientation angle, node 1, rad
        204   -2.439E-01, -3.491E-01, -9.048E-01         F               0         Blade 1 Z orientation angle, node 1, rad
        205    7.901E-01,  4.695E-01, -3.941E-01         F               0         Blade 1 X orientation angle, node 2, rad
        206    5.624E-01, -8.110E-01,  1.613E-01         F               0         Blade 1 Y orientation angle, node 2, rad
        207   -2.439E-01, -3.491E-01, -9.048E-01         F               0         Blade 1 Z orientation angle, node 2, rad
        208    9.009E-01,  2.639E-01, -3.447E-01         F               0         Blade 1 X orientation angle, node 3, rad
        209    3.591E-01, -8.991E-01,  2.502E-01         F               0         Blade 1 Y orientation angle, node 3, rad
        210   -2.439E-01, -3.491E-01, -9.048E-01         F               0         Blade 1 Z orientation angle, node 3, rad
        211    9.152E-01,  2.257E-01, -3.338E-01         F               0         Blade 1 X orientation angle, node 4, rad
        212    3.208E-01, -9.095E-01,  2.645E-01         F               0         Blade 1 Y orientation angle, node 4, rad
        213   -2.439E-01, -3.491E-01, -9.048E-01         F               0         Blade 1 Z orientation angle, node 4, rad
        214    9.254E-01,  1.954E-01, -3.249E-01         F               0         Blade 1 X orientation angle, node 5, rad
        215    2.902E-01, -9.165E-01,  2.754E-01         F               0         Blade 1 Y orientation angle, node 5, rad
        216   -2.439E-01, -3.491E-01, -9.048E-01         F               0         Blade 1 Z orientation angle, node 5, rad
        217    9.327E-01,  1.710E-01, -3.174E-01         F               0         Blade 1 X orientation angle, node 6, rad
        218    2.656E-01, -9.213E-01,  2.839E-01         F               0         Blade 1 Y orientation angle, node 6, rad
        219   -2.439E-01, -3.491E-01, -9.048E-01         F               0         Blade 1 Z orientation angle, node 6, rad
        220    9.383E-01,  1.509E-01, -3.112E-01         F               0         Blade 1 X orientation angle, node 7, rad
        221    2.452E-01, -9.248E-01,  2.908E-01         F               0         Blade 1 Y orientation angle, node 7, rad
        222   -2.439E-01, -3.491E-01, -9.048E-01         F               0         Blade 1 Z orientation angle, node 7, rad
        223    9.426E-01,  1.341E-01, -3.058E-01         F               0         Blade 1 X orientation angle, node 8, rad
        224    2.281E-01, -9.274E-01,  2.964E-01         F               0         Blade 1 Y orientation angle, node 8, rad
        225   -2.439E-01, -3.491E-01, -9.048E-01         F               0         Blade 1 Z orientation angle, node 8, rad
        226    9.460E-01,  1.198E-01, -3.012E-01         F               0         Blade 1 X orientation angle, node 9, rad
        227    2.136E-01, -9.294E-01,  3.010E-01         F               0         Blade 1 Y orientation angle, node 9, rad