
Linearized model: Predictions were generated on 19-Dec-2023 at 09:27:32 using OpenFAST, compiled as a 64-bit application using single precision at commit v3.5.1
 linked with  NWTC Subroutine Library; ElastoDyn; InflowWind; AeroDyn; ServoDyn; HydroDyn; MoorDyn (v2.0.0, 2023-09-18)

Description from the FAST input file: CCT-9 Campign 4 model. Input files to be run with OpenFAST 3.5.0. GitHub branch from Lu Wang (https://github.com/luwang00/openfast/tree/dev) compiled on March 7, 2023.

Simulation information:
   Simulation time:                  1001.0000 s
   Rotor Speed:                         1.0416 rad/s
   Azimuth:                             6.1681 rad
   Wind Speed:                         12.0000 m/s
   Number of continuous states:        22
   Number of discrete states:           0
   Number of constraint states:         0
   Number of inputs:                 4033
   Number of outputs:                  49
   Jacobians included in this file?    No

Order of continuous states:
   Row/Column Operating Point                     Rotating Frame? Derivative Order Description
   ---------- ---------------                     --------------- ---------------- -----------
          1    1.230E+01                                 F               2         ED Platform horizontal surge translation DOF (internal DOF index = DOF_Sg), m
          2   -2.067E-01                                 F               2         ED Platform horizontal sway translation DOF (internal DOF index = DOF_Sw), m
          3   -2.103E-01                                 F               2         ED Platform vertical heave translation DOF (internal DOF index = DOF_Hv), m
          4    3.717E-02                                 F               2         ED Platform roll tilt rotation DOF (internal DOF index = DOF_R), rad
          5    1.549E-01                                 F               2         ED Platform pitch tilt rotation DOF (internal DOF index = DOF_P), rad
          6    1.376E-02                                 F               2         ED Platform yaw rotation DOF (internal DOF index = DOF_Y), rad
          7    1.075E+00                                 F               2         ED 1st tower fore-aft bending mode DOF (internal DOF index = DOF_TFA1), m
          8    1.304E-01                                 F               2         ED 1st tower side-to-side bending mode DOF (internal DOF index = DOF_TSS1), m
          9    1.602E-03                                 F               2         ED 2nd tower fore-aft bending mode DOF (internal DOF index = DOF_TFA2), m
         10    6.463E-05                                 F               2         ED 2nd tower side-to-side bending mode DOF (internal DOF index = DOF_TSS2), m
         11    4.597E+00                                 F               2         ED Variable speed generator DOF (internal DOF index = DOF_GeAz), rad
         12   -2.549E-04                                 F               2         ED First time derivative of Platform horizontal surge translation DOF (internal DOF index = DOF_Sg), m/s
         13    5.788E-04                                 F               2         ED First time derivative of Platform horizontal sway translation DOF (internal DOF index = DOF_Sw), m/s
         14    2.181E-03                                 F               2         ED First time derivative of Platform vertical heave translation DOF (internal DOF index = DOF_Hv), m/s
         15    1.705E-04                                 F               2         ED First time derivative of Platform roll tilt rotation DOF (internal DOF index = DOF_R), rad/s
         16    3.216E-05                                 F               2         ED First time derivative of Platform pitch tilt rotation DOF (internal DOF index = DOF_P), rad/s
         17   -1.864E-04                                 F               2         ED First time derivative of Platform yaw rotation DOF (internal DOF index = DOF_Y), rad/s
         18    2.649E-03                                 F               2         ED First time derivative of 1st tower fore-aft bending mode DOF (internal DOF index = DOF_TFA1), m/s
         19    1.281E-03                                 F               2         ED First time derivative of 1st tower side-to-side bending mode DOF (internal DOF index = DOF_TSS1), m/s
         20    3.483E-06                                 F               2         ED First time derivative of 2nd tower fore-aft bending mode DOF (internal DOF index = DOF_TFA2), m/s
         21   -1.332E-06                                 F               2         ED First time derivative of 2nd tower side-to-side bending mode DOF (internal DOF index = DOF_TSS2), m/s
         22    1.042E+00                                 F               2         ED First time derivative of Variable speed generator DOF (internal DOF index = DOF_GeAz), rad/s

Order of continuous state derivatives:
   Row/Column Operating Point                     Rotating Frame? Derivative Order Description
   ---------- ---------------                     --------------- ---------------- -----------
          1   -2.549E-04                                 F               2         First time derivative of ED Platform horizontal surge translation DOF (internal DOF index = DOF_Sg), m/s
          2    5.788E-04                                 F               2         First time derivative of ED Platform horizontal sway translation DOF (internal DOF index = DOF_Sw), m/s
          3    2.181E-03                                 F               2         First time derivative of ED Platform vertical heave translation DOF (internal DOF index = DOF_Hv), m/s
          4    1.705E-04                                 F               2         First time derivative of ED Platform roll tilt rotation DOF (internal DOF index = DOF_R), rad/s
          5    3.216E-05                                 F               2         First time derivative of ED Platform pitch tilt rotation DOF (internal DOF index = DOF_P), rad/s
          6   -1.864E-04                                 F               2         First time derivative of ED Platform yaw rotation DOF (internal DOF index = DOF_Y), rad/s
          7    2.649E-03                                 F               2         First time derivative of ED 1st tower fore-aft bending mode DOF (internal DOF index = DOF_TFA1), m/s
          8    1.281E-03                                 F               2         First time derivative of ED 1st tower side-to-side bending mode DOF (internal DOF index = DOF_TSS1), m/s
          9    3.483E-06                                 F               2         First time derivative of ED 2nd tower fore-aft bending mode DOF (internal DOF index = DOF_TFA2), m/s
         10   -1.332E-06                                 F               2         First time derivative of ED 2nd tower side-to-side bending mode DOF (internal DOF index = DOF_TSS2), m/s
         11    1.042E+00                                 F               2         First time derivative of ED Variable speed generator DOF (internal DOF index = DOF_GeAz), rad/s
         12   -2.243E-04                                 F               2         First time derivative of ED First time derivative of Platform horizontal surge translation DOF (internal DOF index = DOF_Sg), m/s/s
         13    7.194E-04                                 F               2         First time derivative of ED First time derivative of Platform horizontal sway translation DOF (internal DOF index = DOF_Sw), m/s/s
         14    1.621E-03                                 F               2         First time derivative of ED First time derivative of Platform vertical heave translation DOF (internal DOF index = DOF_Hv), m/s/s
         15    1.571E-04                                 F               2         First time derivative of ED First time derivative of Platform roll tilt rotation DOF (internal DOF index = DOF_R), rad/s/s
         16   -5.429E-06                                 F               2         First time derivative of ED First time derivative of Platform pitch tilt rotation DOF (internal DOF index = DOF_P), rad/s/s
         17   -4.892E-05                                 F               2         First time derivative of ED First time derivative of Platform yaw rotation DOF (internal DOF index = DOF_Y), rad/s/s
         18    2.360E-03                                 F               2         First time derivative of ED First time derivative of 1st tower fore-aft bending mode DOF (internal DOF index = DOF_TFA1), m/s/s
         19    3.926E-03                                 F               2         First time derivative of ED First time derivative of 1st tower side-to-side bending mode DOF (internal DOF index = DOF_TSS1), m/s/s
         20    2.208E-05                                 F               2         First time derivative of ED First time derivative of 2nd tower fore-aft bending mode DOF (internal DOF index = DOF_TFA2), m/s/s
         21    3.135E-06                                 F               2         First time derivative of ED First time derivative of 2nd tower side-to-side bending mode DOF (internal DOF index = DOF_TSS2), m/s/s
         22   -3.946E-04                                 F               2         First time derivative of ED First time derivative of Variable speed generator DOF (internal DOF index = DOF_GeAz), rad/s/s

Order of inputs:
     Column   Operating Point                     Rotating Frame? Derivative Order Description
   ---------- ---------------                     --------------- ---------------- -----------
          1   -1.080E+01                                 F               0         IfW X-component position of node 1 (hub), m
          2    0.000E+00                                 F               0         IfW Y-component position of node 1 (hub), m
          3    1.497E+02                                 F               0         IfW Z-component position of node 1 (hub), m
          4    2.722E+01                                 F               0         IfW X-component position of node 2 (blade 1, node 1), m
          5   -5.409E+00                                 F               0         IfW Y-component position of node 2 (blade 1, node 1), m
          6    1.546E+02                                 F               0         IfW Z-component position of node 2 (blade 1, node 1), m
          7    2.757E+01                                 F               0         IfW X-component position of node 3 (blade 1, node 2), m
          8   -5.302E+00                                 F               0         IfW Y-component position of node 3 (blade 1, node 2), m
          9    1.559E+02                                 F               0         IfW Z-component position of node 3 (blade 1, node 2), m
         10    3.238E+01                                 F               0         IfW X-component position of node 4 (blade 1, node 3), m
         11   -3.851E+00                                 F               0         IfW Y-component position of node 4 (blade 1, node 3), m
         12    1.733E+02                                 F               0         IfW Z-component position of node 4 (blade 1, node 3), m
         13    3.341E+01                                 F               0         IfW X-component position of node 5 (blade 1, node 4), m
         14   -3.542E+00                                 F               0         IfW Y-component position of node 5 (blade 1, node 4), m
         15    1.770E+02                                 F               0         IfW Z-component position of node 5 (blade 1, node 4), m
         16    3.443E+01                                 F               0         IfW X-component position of node 6 (blade 1, node 5), m
         17   -3.232E+00                                 F               0         IfW Y-component position of node 6 (blade 1, node 5), m
         18    1.807E+02                                 F               0         IfW Z-component position of node 6 (blade 1, node 5), m
         19    3.546E+01                                 F               0         IfW X-component position of node 7 (blade 1, node 6), m
         20   -2.923E+00                                 F               0         IfW Y-component position of node 7 (blade 1, node 6), m
         21    1.845E+02                                 F               0         IfW Z-component position of node 7 (blade 1, node 6), m
         22    3.648E+01                                 F               0         IfW X-component position of node 8 (blade 1, node 7), m
         23   -2.614E+00                                 F               0         IfW Y-component position of node 8 (blade 1, node 7), m
         24    1.882E+02                                 F               0         IfW Z-component position of node 8 (blade 1, node 7), m
         25    3.751E+01                                 F               0         IfW X-component position of node 9 (blade 1, node 8), m
         26   -2.305E+00                                 F               0         IfW Y-component position of node 9 (blade 1, node 8), m
         27    1.919E+02                                 F               0         IfW Z-component position of node 9 (blade 1, node 8), m
         28    3.853E+01                                 F               0         IfW X-component position of node 10 (blade 1, node 9), m
         29   -1.996E+00                                 F               0         IfW Y-component position of node 10 (blade 1, node 9), m
         30    1.956E+02                                 F               0         IfW Z-component position of node 10 (blade 1, node 9), m
         31    3.956E+01                                 F               0         IfW X-component position of node 11 (blade 1, node 10), m
         32   -1.686E+00                                 F               0         IfW Y-component position of node 11 (blade 1, node 10), m
         33    1.993E+02                                 F               0         IfW Z-component position of node 11 (blade 1, node 10), m
         34    4.058E+01                                 F               0         IfW X-component position of node 12 (blade 1, node 11), m
         35   -1.377E+00                                 F               0         IfW Y-component position of node 12 (blade 1, node 11), m
         36    2.030E+02                                 F               0         IfW Z-component position of node 12 (blade 1, node 11), m
         37    4.160E+01                                 F               0         IfW X-component position of node 13 (blade 1, node 12), m
         38   -1.068E+00                                 F               0         IfW Y-component position of node 13 (blade 1, node 12), m
         39    2.068E+02                                 F               0         IfW Z-component position of node 13 (blade 1, node 12), m
         40    4.263E+01                                 F               0         IfW X-component position of node 14 (blade 1, node 13), m
         41   -7.588E-01                                 F               0         IfW Y-component position of node 14 (blade 1, node 13), m
         42    2.105E+02                                 F               0         IfW Z-component position of node 14 (blade 1, node 13), m
         43    4.365E+01                                 F               0         IfW X-component position of node 15 (blade 1, node 14), m
         44   -4.496E-01                                 F               0         IfW Y-component position of node 15 (blade 1, node 14), m
         45    2.142E+02                                 F               0         IfW Z-component position of node 15 (blade 1, node 14), m
         46    4.468E+01                                 F               0         IfW X-component position of node 16 (blade 1, node 15), m
         47   -1.404E-01                                 F               0         IfW Y-component position of node 16 (blade 1, node 15), m
         48    2.179E+02                                 F               0         IfW Z-component position of node 16 (blade 1, node 15), m
         49    4.570E+01                                 F               0         IfW X-component position of node 17 (blade 1, node 16), m
         50    1.688E-01                                 F               0         IfW Y-component position of node 17 (blade 1, node 16), m
         51    2.216E+02                                 F               0         IfW Z-component position of node 17 (blade 1, node 16), m
         52    4.673E+01                                 F               0         IfW X-component position of node 18 (blade 1, node 17), m
         53    4.780E-01                                 F               0         IfW Y-component position of node 18 (blade 1, node 17), m
         54    2.253E+02                                 F               0         IfW Z-component position of node 18 (blade 1, node 17), m
         55    4.775E+01                                 F               0         IfW X-component position of node 19 (blade 1, node 18), m
         56    7.872E-01                                 F               0         IfW Y-component position of node 19 (blade 1, node 18), m
         57    2.291E+02                                 F               0         IfW Z-component position of node 19 (blade 1, node 18), m
         58    4.878E+01                                 F               0         IfW X-component position of node 20 (blade 1, node 19), m
         59    1.096E+00                                 F               0         IfW Y-component position of node 20 (blade 1, node 19), m
         60    2.328E+02                                 F               0         IfW Z-component position of node 20 (blade 1, node 19), m
         61    4.980E+01                                 F               0         IfW X-component position of node 21 (blade 1, node 20), m
         62    1.406E+00                                 F               0         IfW Y-component position of node 21 (blade 1, node 20), m
         63    2.365E+02                                 F               0         IfW Z-component position of node 21 (blade 1, node 20), m
         64    5.083E+01                                 F               0         IfW X-component position of node 22 (blade 1, node 21), m
         65    1.715E+00                                 F               0         IfW Y-component position of node 22 (blade 1, node 21), m
         66    2.402E+02                                 F               0         IfW Z-component position of node 22 (blade 1, node 21), m
         67    5.185E+01                                 F               0         IfW X-component position of node 23 (blade 1, node 22), m
         68    2.024E+00                                 F               0         IfW Y-component position of node 23 (blade 1, node 22), m
         69    2.439E+02                                 F               0         IfW Z-component position of node 23 (blade 1, node 22), m
         70    5.288E+01                                 F               0         IfW X-component position of node 24 (blade 1, node 23), m
         71    2.333E+00                                 F               0         IfW Y-component position of node 24 (blade 1, node 23), m
         72    2.476E+02                                 F               0         IfW Z-component position of node 24 (blade 1, node 23), m
         73    5.390E+01                                 F               0         IfW X-component position of node 25 (blade 1, node 24), m
         74    2.642E+00                                 F               0         IfW Y-component position of node 25 (blade 1, node 24), m
         75    2.514E+02                                 F               0         IfW Z-component position of node 25 (blade 1, node 24), m
         76    5.493E+01                                 F               0         IfW X-component position of node 26 (blade 1, node 25), m
         77    2.952E+00                                 F               0         IfW Y-component position of node 26 (blade 1, node 25), m
         78    2.551E+02                                 F               0         IfW Z-component position of node 26 (blade 1, node 25), m
         79    5.595E+01                                 F               0         IfW X-component position of node 27 (blade 1, node 26), m
         80    3.261E+00                                 F               0         IfW Y-component position of node 27 (blade 1, node 26), m
         81    2.588E+02                                 F               0         IfW Z-component position of node 27 (blade 1, node 26), m
         82    5.698E+01                                 F               0         IfW X-component position of node 28 (blade 1, node 27), m
         83    3.570E+00                                 F               0         IfW Y-component position of node 28 (blade 1, node 27), m
         84    2.625E+02                                 F               0         IfW Z-component position of node 28 (blade 1, node 27), m
         85    5.785E+01                                 F               0         IfW X-component position of node 29 (blade 1, node 28), m
         86    3.832E+00                                 F               0         IfW Y-component position of node 29 (blade 1, node 28), m
         87    2.657E+02                                 F               0         IfW Z-component position of node 29 (blade 1, node 28), m
         88    2.521E+01                                 F               0         IfW X-component position of node 30 (blade 2, node 1), m
         89   -1.085E+01                                 F               0         IfW Y-component position of node 30 (blade 2, node 1), m
         90    1.469E+02                                 F               0         IfW Z-component position of node 30 (blade 2, node 1), m
         91    2.508E+01                                 F               0         IfW X-component position of node 31 (blade 2, node 2), m
         92   -1.206E+01                                 F               0         IfW Y-component position of node 31 (blade 2, node 2), m
         93    1.464E+02                                 F               0         IfW Z-component position of node 31 (blade 2, node 2), m
         94    2.333E+01                                 F               0         IfW X-component position of node 32 (blade 2, node 3), m
         95   -2.845E+01                                 F               0         IfW Y-component position of node 32 (blade 2, node 3), m
         96    1.388E+02                                 F               0         IfW Z-component position of node 32 (blade 2, node 3), m
         97    2.295E+01                                 F               0         IfW X-component position of node 33 (blade 2, node 4), m
         98   -3.194E+01                                 F               0         IfW Y-component position of node 33 (blade 2, node 4), m
         99    1.372E+02                                 F               0         IfW Z-component position of node 33 (blade 2, node 4), m
        100    2.258E+01                                 F               0         IfW X-component position of node 34 (blade 2, node 5), m
        101   -3.544E+01                                 F               0         IfW Y-component position of node 34 (blade 2, node 5), m
        102    1.355E+02                                 F               0         IfW Z-component position of node 34 (blade 2, node 5), m
        103    2.220E+01                                 F               0         IfW X-component position of node 35 (blade 2, node 6), m
        104   -3.893E+01                                 F               0         IfW Y-component position of node 35 (blade 2, node 6), m
        105    1.339E+02                                 F               0         IfW Z-component position of node 35 (blade 2, node 6), m
        106    2.183E+01                                 F               0         IfW X-component position of node 36 (blade 2, node 7), m
        107   -4.242E+01                                 F               0         IfW Y-component position of node 36 (blade 2, node 7), m
        108    1.323E+02                                 F               0         IfW Z-component position of node 36 (blade 2, node 7), m
        109    2.146E+01                                 F               0         IfW X-component position of node 37 (blade 2, node 8), m
        110   -4.592E+01                                 F               0         IfW Y-component position of node 37 (blade 2, node 8), m
        111    1.307E+02                                 F               0         IfW Z-component position of node 37 (blade 2, node 8), m
        112    2.108E+01                                 F               0         IfW X-component position of node 38 (blade 2, node 9), m
        113   -4.941E+01                                 F               0         IfW Y-component position of node 38 (blade 2, node 9), m
        114    1.291E+02                                 F               0         IfW Z-component position of node 38 (blade 2, node 9), m
        115    2.071E+01                                 F               0         IfW X-component position of node 39 (blade 2, node 10), m
        116   -5.290E+01                                 F               0         IfW Y-component position of node 39 (blade 2, node 10), m
        117    1.275E+02                                 F               0         IfW Z-component position of node 39 (blade 2, node 10), m
        118    2.033E+01                                 F               0         IfW X-component position of node 40 (blade 2, node 11), m
        119   -5.639E+01                                 F               0         IfW Y-component position of node 40 (blade 2, node 11), m
        120    1.258E+02                                 F               0         IfW Z-component position of node 40 (blade 2, node 11), m
        121    1.996E+01                                 F               0         IfW X-component position of node 41 (blade 2, node 12), m
        122   -5.989E+01                                 F               0         IfW Y-component position of node 41 (blade 2, node 12), m
        123    1.242E+02                                 F               0         IfW Z-component position of node 41 (blade 2, node 12), m
        124    1.958E+01                                 F               0         IfW X-component position of node 42 (blade 2, node 13), m
        125   -6.338E+01                                 F               0         IfW Y-component position of node 42 (blade 2, node 13), m
        126    1.226E+02                                 F               0         IfW Z-component position of node 42 (blade 2, node 13), m
        127    1.921E+01                                 F               0         IfW X-component position of node 43 (blade 2, node 14), m
        128   -6.687E+01                                 F               0         IfW Y-component position of node 43 (blade 2, node 14), m
        129    1.210E+02                                 F               0         IfW Z-component position of node 43 (blade 2, node 14), m
        130    1.884E+01                                 F               0         IfW X-component position of node 44 (blade 2, node 15), m
        131   -7.037E+01                                 F               0         IfW Y-component position of node 44 (blade 2, node 15), m
        132    1.194E+02                                 F               0         IfW Z-component position of node 44 (blade 2, node 15), m
        133    1.846E+01                                 F               0         IfW X-component position of node 45 (blade 2, node 16), m
        134   -7.386E+01                                 F               0         IfW Y-component position of node 45 (blade 2, node 16), m
        135    1.177E+02                                 F               0         IfW Z-component position of node 45 (blade 2, node 16), m
        136    1.809E+01                                 F               0         IfW X-component position of node 46 (blade 2, node 17), m
        137   -7.735E+01                                 F               0         IfW Y-component position of node 46 (blade 2, node 17), m
        138    1.161E+02                                 F               0         IfW Z-component position of node 46 (blade 2, node 17), m
        139    1.771E+01                                 F               0         IfW X-component position of node 47 (blade 2, node 18), m
        140   -8.084E+01                                 F               0         IfW Y-component position of node 47 (blade 2, node 18), m
        141    1.145E+02                                 F               0         IfW Z-component position of node 47 (blade 2, node 18), m
        142    1.734E+01                                 F               0         IfW X-component position of node 48 (blade 2, node 19), m
        143   -8.434E+01                                 F               0         IfW Y-component position of node 48 (blade 2, node 19), m
        144    1.129E+02                                 F               0         IfW Z-component position of node 48 (blade 2, node 19), m