
Linearized model: Predictions were generated on 19-Dec-2023 at 09:27:32 using OpenFAST, compiled as a 64-bit application using single precision at commit v3.5.1
 linked with  NWTC Subroutine Library; ElastoDyn; InflowWind; AeroDyn; ServoDyn; HydroDyn; MoorDyn (v2.0.0, 2023-09-18)

Description from the FAST input file: CCT-9 Campign 4 model. Input files to be run with OpenFAST 3.5.0. GitHub branch from Lu Wang (https://github.com/luwang00/openfast/tree/dev) compiled on March 7, 2023.

Simulation information:
   Simulation time:                  1002.0000 s
   Rotor Speed:                         1.0413 rad/s
   Azimuth:                             0.9263 rad
   Wind Speed:                         12.0000 m/s
   Number of continuous states:         0
   Number of discrete states:           0
   Number of constraint states:         0
   Number of inputs:                 1746
   Number of outputs:                   4
   Jacobians included in this file?    No

Order of inputs:
     Column   Operating Point                     Rotating Frame? Derivative Order Description
   ---------- ---------------                     --------------- ---------------- -----------
          1    1.511E+01                                 F               0         Tower X translation displacement, node 1, m
          2   -8.646E-01                                 F               0         Tower Y translation displacement, node 1, m
          3   -4.358E-01                                 F               0         Tower Z translation displacement, node 1, m
          4    1.702E+01                                 F               0         Tower X translation displacement, node 2, m
          5   -1.310E+00                                 F               0         Tower Y translation displacement, node 2, m
          6   -5.919E-01                                 F               0         Tower Z translation displacement, node 2, m
          7    1.896E+01                                 F               0         Tower X translation displacement, node 3, m
          8   -1.759E+00                                 F               0         Tower Y translation displacement, node 3, m
          9   -7.534E-01                                 F               0         Tower Z translation displacement, node 3, m
         10    2.093E+01                                 F               0         Tower X translation displacement, node 4, m
         11   -2.210E+00                                 F               0         Tower Y translation displacement, node 4, m
         12   -9.193E-01                                 F               0         Tower Z translation displacement, node 4, m
         13    2.291E+01                                 F               0         Tower X translation displacement, node 5, m
         14   -2.664E+00                                 F               0         Tower Y translation displacement, node 5, m
         15   -1.089E+00                                 F               0         Tower Z translation displacement, node 5, m
         16    2.492E+01                                 F               0         Tower X translation displacement, node 6, m
         17   -3.120E+00                                 F               0         Tower Y translation displacement, node 6, m
         18   -1.261E+00                                 F               0         Tower Z translation displacement, node 6, m
         19    2.694E+01                                 F               0         Tower X translation displacement, node 7, m
         20   -3.578E+00                                 F               0         Tower Y translation displacement, node 7, m
         21   -1.436E+00                                 F               0         Tower Z translation displacement, node 7, m
         22    2.897E+01                                 F               0         Tower X translation displacement, node 8, m
         23   -4.037E+00                                 F               0         Tower Y translation displacement, node 8, m
         24   -1.613E+00                                 F               0         Tower Z translation displacement, node 8, m
         25    3.101E+01                                 F               0         Tower X translation displacement, node 9, m
         26   -4.497E+00                                 F               0         Tower Y translation displacement, node 9, m
         27   -1.791E+00                                 F               0         Tower Z translation displacement, node 9, m
         28    3.306E+01                                 F               0         Tower X translation displacement, node 10, m
         29   -4.957E+00                                 F               0         Tower Y translation displacement, node 10, m
         30   -1.970E+00                                 F               0         Tower Z translation displacement, node 10, m
         31    3.510E+01                                 F               0         Tower X translation displacement, node 11, m
         32   -5.419E+00                                 F               0         Tower Y translation displacement, node 11, m
         33   -2.150E+00                                 F               0         Tower Z translation displacement, node 11, m
         34    9.881E-01,  1.622E-02, -1.527E-01         F               0         Tower X orientation angle, node 1, rad
         35   -1.054E-02,  9.992E-01,  3.798E-02         F               0         Tower Y orientation angle, node 1, rad
         36    1.532E-01, -3.592E-02,  9.875E-01         F               0         Tower Z orientation angle, node 1, rad
         37    9.877E-01,  1.632E-02, -1.553E-01         F               0         Tower X orientation angle, node 2, rad
         38   -1.049E-02,  9.992E-01,  3.829E-02         F               0         Tower Y orientation angle, node 2, rad
         39    1.558E-01, -3.619E-02,  9.871E-01         F               0         Tower Z orientation angle, node 2, rad
         40    9.874E-01,  1.640E-02, -1.576E-01         F               0         Tower X orientation angle, node 3, rad
         41   -1.045E-02,  9.992E-01,  3.856E-02         F               0         Tower Y orientation angle, node 3, rad
         42    1.581E-01, -3.643E-02,  9.868E-01         F               0         Tower Z orientation angle, node 3, rad
         43    9.871E-01,  1.648E-02, -1.595E-01         F               0         Tower X orientation angle, node 4, rad
         44   -1.041E-02,  9.992E-01,  3.880E-02         F               0         Tower Y orientation angle, node 4, rad
         45    1.600E-01, -3.664E-02,  9.864E-01         F               0         Tower Z orientation angle, node 4, rad
         46    9.868E-01,  1.654E-02, -1.612E-01         F               0         Tower X orientation angle, node 5, rad
         47   -1.037E-02,  9.992E-01,  3.901E-02         F               0         Tower Y orientation angle, node 5, rad
         48    1.617E-01, -3.682E-02,  9.862E-01         F               0         Tower Z orientation angle, node 5, rad
         49    9.866E-01,  1.659E-02, -1.625E-01         F               0         Tower X orientation angle, node 6, rad
         50   -1.034E-02,  9.992E-01,  3.918E-02         F               0         Tower Y orientation angle, node 6, rad
         51    1.630E-01, -3.698E-02,  9.859E-01         F               0         Tower Z orientation angle, node 6, rad
         52    9.864E-01,  1.662E-02, -1.635E-01         F               0         Tower X orientation angle, node 7, rad
         53   -1.032E-02,  9.992E-01,  3.932E-02         F               0         Tower Y orientation angle, node 7, rad
         54    1.640E-01, -3.710E-02,  9.858E-01         F               0         Tower Z orientation angle, node 7, rad
         55    9.863E-01,  1.665E-02, -1.643E-01         F               0         Tower X orientation angle, node 8, rad
         56   -1.030E-02,  9.992E-01,  3.943E-02         F               0         Tower Y orientation angle, node 8, rad
         57    1.648E-01, -3.719E-02,  9.856E-01         F               0         Tower Z orientation angle, node 8, rad
         58    9.862E-01,  1.667E-02, -1.648E-01         F               0         Tower X orientation angle, node 9, rad
         59   -1.029E-02,  9.992E-01,  3.950E-02         F               0         Tower Y orientation angle, node 9, rad
         60    1.653E-01, -3.726E-02,  9.855E-01         F               0         Tower Z orientation angle, node 9, rad
         61    9.861E-01,  1.669E-02, -1.651E-01         F               0         Tower X orientation angle, node 10, rad
         62   -1.028E-02,  9.992E-01,  3.956E-02         F               0         Tower Y orientation angle, node 10, rad
         63    1.657E-01, -3.731E-02,  9.855E-01         F               0         Tower Z orientation angle, node 10, rad
         64    9.861E-01,  1.669E-02, -1.653E-01         F               0         Tower X orientation angle, node 11, rad
         65   -1.028E-02,  9.992E-01,  3.958E-02         F               0         Tower Y orientation angle, node 11, rad
         66    1.658E-01, -3.733E-02,  9.854E-01         F               0         Tower Z orientation angle, node 11, rad
         67    7.721E-04                                 F               0         Tower X translation velocity, node 1, m/s
         68   -5.728E-03                                 F               0         Tower Y translation velocity, node 1, m/s
         69    3.372E-03                                 F               0         Tower Z translation velocity, node 1, m/s
         70    1.271E-03                                 F               0         Tower X translation velocity, node 2, m/s
         71   -1.034E-02                                 F               0         Tower Y translation velocity, node 2, m/s
         72    3.126E-03                                 F               0         Tower Z translation velocity, node 2, m/s
         73    1.719E-03                                 F               0         Tower X translation velocity, node 3, m/s
         74   -1.508E-02                                 F               0         Tower Y translation velocity, node 3, m/s
         75    2.880E-03                                 F               0         Tower Z translation velocity, node 3, m/s
         76    2.132E-03                                 F               0         Tower X translation velocity, node 4, m/s
         77   -1.993E-02                                 F               0         Tower Y translation velocity, node 4, m/s
         78    2.633E-03                                 F               0         Tower Z translation velocity, node 4, m/s
         79    2.520E-03                                 F               0         Tower X translation velocity, node 5, m/s
         80   -2.487E-02                                 F               0         Tower Y translation velocity, node 5, m/s
         81    2.386E-03                                 F               0         Tower Z translation velocity, node 5, m/s
         82    2.893E-03                                 F               0         Tower X translation velocity, node 6, m/s
         83   -2.990E-02                                 F               0         Tower Y translation velocity, node 6, m/s
         84    2.137E-03                                 F               0         Tower Z translation velocity, node 6, m/s
         85    3.256E-03                                 F               0         Tower X translation velocity, node 7, m/s
         86   -3.498E-02                                 F               0         Tower Y translation velocity, node 7, m/s
         87    1.885E-03                                 F               0         Tower Z translation velocity, node 7, m/s
         88    3.616E-03                                 F               0         Tower X translation velocity, node 8, m/s
         89   -4.012E-02                                 F               0         Tower Y translation velocity, node 8, m/s
         90    1.632E-03                                 F               0         Tower Z translation velocity, node 8, m/s
         91    3.976E-03                                 F               0         Tower X translation velocity, node 9, m/s
         92   -4.530E-02                                 F               0         Tower Y translation velocity, node 9, m/s
         93    1.375E-03                                 F               0         Tower Z translation velocity, node 9, m/s
         94    4.338E-03                                 F               0         Tower X translation velocity, node 10, m/s
         95   -5.051E-02                                 F               0         Tower Y translation velocity, node 10, m/s
         96    1.117E-03                                 F               0         Tower Z translation velocity, node 10, m/s
         97    4.704E-03                                 F               0         Tower X translation velocity, node 11, m/s
         98   -5.575E-02                                 F               0         Tower Y translation velocity, node 11, m/s
         99    8.578E-04                                 F               0         Tower Z translation velocity, node 11, m/s
        100    3.656E+01                                 F               0         Hub X translation displacement, node 1, m
        101   -5.892E+00                                 F               0         Hub Y translation displacement, node 1, m
        102   -4.790E-01                                 F               0         Hub Z translation displacement, node 1, m
        103    9.634E-01,  2.050E-02, -2.674E-01         F               0         Hub X orientation angle, node 1, rad
        104    2.081E-01,  5.720E-01,  7.934E-01         F               0         Hub Y orientation angle, node 1, rad
        105    1.692E-01, -8.200E-01,  5.468E-01         F               0         Hub Z orientation angle, node 1, rad
        106    1.004E+00                                 F               0         Hub X rotation velocity, node 1, rad/s
        107    2.139E-02                                 F               0         Hub Y rotation velocity, node 1, rad/s
        108   -2.787E-01                                 F               0         Hub Z rotation velocity, node 1, rad/s
        109    9.568E-01,  3.526E-03, -2.908E-01         F               0         Blade root 1 X orientation angle, node 1, rad
        110    2.366E-01,  5.723E-01,  7.852E-01         F               0         Blade root 1 Y orientation angle, node 1, rad
        111    1.692E-01, -8.200E-01,  5.468E-01         F               0         Blade root 1 Z orientation angle, node 1, rad
        112    9.617E-01,  5.005E-02, -2.696E-01         F               0         Blade root 2 X orientation angle, node 1, rad
        113    7.108E-02, -9.951E-01,  6.882E-02         F               0         Blade root 2 Y orientation angle, node 1, rad
        114   -2.648E-01, -8.534E-02, -9.605E-01         F               0         Blade root 2 Z orientation angle, node 1, rad
        115    9.704E-01,  7.912E-03, -2.415E-01         F               0         Blade root 3 X orientation angle, node 1, rad
        116   -2.219E-01,  4.246E-01, -8.778E-01         F               0         Blade root 3 Y orientation angle, node 1, rad
        117    9.558E-02,  9.054E-01,  4.138E-01         F               0         Blade root 3 Z orientation angle, node 1, rad
        118    3.692E+01                                 F               0         Blade 1 X translation displacement, node 1, m
        119   -1.043E+01                                 F               0         Blade 1 Y translation displacement, node 1, m
        120   -2.960E+00                                 F               0         Blade 1 Z translation displacement, node 1, m
        121    3.700E+01                                 F               0         Blade 1 X translation displacement, node 2, m
        122   -1.153E+01                                 F               0         Blade 1 Y translation displacement, node 2, m
        123   -3.557E+00                                 F               0         Blade 1 Z translation displacement, node 2, m
        124    3.818E+01                                 F               0         Blade 1 X translation displacement, node 3, m
        125   -2.641E+01                                 F               0         Blade 1 Y translation displacement, node 3, m
        126   -1.169E+01                                 F               0         Blade 1 Z translation displacement, node 3, m
        127    3.843E+01                                 F               0         Blade 1 X translation displacement, node 4, m
        128   -2.959E+01                                 F               0         Blade 1 Y translation displacement, node 4, m
        129   -1.342E+01                                 F               0         Blade 1 Z translation displacement, node 4, m
        130    3.868E+01                                 F               0         Blade 1 X translation displacement, node 5, m
        131   -3.276E+01                                 F               0         Blade 1 Y translation displacement, node 5, m
        132   -1.515E+01                                 F               0         Blade 1 Z translation displacement, node 5, m
        133    3.893E+01                                 F               0         Blade 1 X translation displacement, node 6, m
        134   -3.593E+01                                 F               0         Blade 1 Y translation displacement, node 6, m
        135   -1.688E+01                                 F               0         Blade 1 Z translation displacement, node 6, m
        136    3.918E+01                                 F               0         Blade 1 X translation displacement, node 7, m
        137   -3.910E+01                                 F               0         Blade 1 Y translation displacement, node 7, m
        138   -1.861E+01                                 F               0         Blade 1 Z translation displacement, node 7, m
        139    3.943E+01                                 F               0         Blade 1 X translation displacement, node 8, m
        140   -4.227E+01                                 F               0         Blade 1 Y translation displacement, node 8, m
        141   -2.034E+01                                 F               0         Blade 1 Z translation displacement, node 8, m
        142    3.968E+01                                 F               0         Blade 1 X translation displacement, node 9, m
        143   -4.544E+01                                 F               0         Blade 1 Y translation displacement, node 9, m
        144   -2.208E+01                                 F               0         Blade 1 Z translation displacement, node 9, m
        145    3.993E+01                                 F               0         Blade 1 X translation displacement, node 10, m
        146   -4.862E+01                                 F               0         Blade 1 Y translation displacement, node 10, m
        147   -2.381E+01                                 F               0         Blade 1 Z translation displacement, node 10, m
        148    4.018E+01                                 F               0         Blade 1 X translation displacement, node 11, m
        149   -5.179E+01                                 F               0         Blade 1 Y translation displacement, node 11, m
        150   -2.554E+01                                 F               0         Blade 1 Z translation displacement, node 11, m
        151    4.043E+01                                 F               0         Blade 1 X translation displacement, node 12, m
        152   -5.496E+01                                 F               0         Blade 1 Y translation displacement, node 12, m
        153   -2.727E+01                                 F               0         Blade 1 Z translation displacement, node 12, m
        154    4.068E+01                                 F               0         Blade 1 X translation displacement, node 13, m
        155   -5.813E+01                                 F               0         Blade 1 Y translation displacement, node 13, m
        156   -2.900E+01                                 F               0         Blade 1 Z translation displacement, node 13, m
        157    4.093E+01                                 F               0         Blade 1 X translation displacement, node 14, m
        158   -6.130E+01                                 F               0         Blade 1 Y translation displacement, node 14, m
        159   -3.074E+01                                 F               0         Blade 1 Z translation displacement, node 14, m
        160    4.118E+01                                 F               0         Blade 1 X translation displacement, node 15, m
        161   -6.447E+01                                 F               0         Blade 1 Y translation displacement, node 15, m
        162   -3.247E+01                                 F               0         Blade 1 Z translation displacement, node 15, m
        163    4.143E+01                                 F               0         Blade 1 X translation displacement, node 16, m
        164   -6.765E+01                                 F               0         Blade 1 Y translation displacement, node 16, m
        165   -3.420E+01                                 F               0         Blade 1 Z translation displacement, node 16, m
        166    4.168E+01                                 F               0         Blade 1 X translation displacement, node 17, m
        167   -7.082E+01                                 F               0         Blade 1 Y translation displacement, node 17, m
        168   -3.593E+01                                 F               0         Blade 1 Z translation displacement, node 17, m
        169    4.193E+01                                 F               0         Blade 1 X translation displacement, node 18, m
        170   -7.399E+01                                 F               0         Blade 1 Y translation displacement, node 18, m
        171   -3.766E+01                                 F               0         Blade 1 Z translation displacement, node 18, m
        172    4.218E+01                                 F               0         Blade 1 X translation displacement, node 19, m
        173   -7.716E+01                                 F               0         Blade 1 Y translation displacement, node 19, m
        174   -3.939E+01                                 F               0         Blade 1 Z translation displacement, node 19, m
        175    4.243E+01                                 F               0         Blade 1 X translation displacement, node 20, m
        176   -8.033E+01                                 F               0         Blade 1 Y translation displacement, node 20, m
        177   -4.113E+01                                 F               0         Blade 1 Z translation displacement, node 20, m
        178    4.268E+01                                 F               0         Blade 1 X translation displacement, node 21, m
        179   -8.350E+01                                 F               0         Blade 1 Y translation displacement, node 21, m
        180   -4.286E+01                                 F               0         Blade 1 Z translation displacement, node 21, m
        181    4.293E+01                                 F               0         Blade 1 X translation displacement, node 22, m
        182   -8.667E+01                                 F               0         Blade 1 Y translation displacement, node 22, m
        183   -4.459E+01                                 F               0         Blade 1 Z translation displacement, node 22, m
        184    4.318E+01                                 F               0         Blade 1 X translation displacement, node 23, m
        185   -8.985E+01                                 F               0         Blade 1 Y translation displacement, node 23, m
        186   -4.632E+01                                 F               0         Blade 1 Z translation displacement, node 23, m
        187    4.343E+01                                 F               0         Blade 1 X translation displacement, node 24, m
        188   -9.302E+01                                 F               0         Blade 1 Y translation displacement, node 24, m
        189   -4.805E+01                                 F               0         Blade 1 Z translation displacement, node 24, m
        190    4.368E+01                                 F               0         Blade 1 X translation displacement, node 25, m
        191   -9.619E+01                                 F               0         Blade 1 Y translation displacement, node 25, m
        192   -4.978E+01                                 F               0         Blade 1 Z translation displacement, node 25, m
        193    4.393E+01                                 F               0         Blade 1 X translation displacement, node 26, m
        194   -9.936E+01                                 F               0         Blade 1 Y translation displacement, node 26, m
        195   -5.152E+01                                 F               0         Blade 1 Z translation displacement, node 26, m
        196    4.418E+01                                 F               0         Blade 1 X translation displacement, node 27, m
        197   -1.025E+02                                 F               0         Blade 1 Y translation displacement, node 27, m
        198   -5.325E+01                                 F               0         Blade 1 Z translation displacement, node 27, m
        199    4.439E+01                                 F               0         Blade 1 X translation displacement, node 28, m
        200   -1.052E+02                                 F               0         Blade 1 Y translation displacement, node 28, m
        201   -5.472E+01                                 F               0         Blade 1 Z translation displacement, node 28, m
        202    7.436E-01, -2.579E-01, -6.169E-01         F               0         Blade 1 X orientation angle, node 1, rad
        203    6.468E-01,  5.110E-01,  5.661E-01         F               0         Blade 1 Y orientation angle, node 1, rad
        204    1.692E-01, -8.200E-01,  5.468E-01         F               0         Blade 1 Z orientation angle, node 1, rad
        205    7.436E-01, -2.579E-01, -6.169E-01         F               0         Blade 1 X orientation angle, node 2, rad
        206    6.468E-01,  5.110E-01,  5.661E-01         F               0         Blade 1 Y orientation angle, node 2, rad
        207    1.692E-01, -8.200E-01,  5.468E-01         F               0         Blade 1 Z orientation angle, node 2, rad
        208    8.757E-01, -1.294E-01, -4.651E-01         F               0         Blade 1 X orientation angle, node 3, rad
        209    4.522E-01,  5.575E-01,  6.962E-01         F               0         Blade 1 Y orientation angle, node 3, rad
        210    1.692E-01, -8.200E-01,  5.468E-01         F               0         Blade 1 Z orientation angle, node 3, rad
        211    8.941E-01, -1.057E-01, -4.353E-01         F               0         Blade 1 X orientation angle, node 4, rad
        212    4.148E-01,  5.625E-01,  7.152E-01         F               0         Blade 1 Y orientation angle, node 4, rad
        213    1.692E-01, -8.200E-01,  5.468E-01         F               0         Blade 1 Z orientation angle, node 4, rad
        214    9.073E-01, -8.704E-02, -4.114E-01         F               0         Blade 1 X orientation angle, node 5, rad
        215    3.849E-01,  5.657E-01,  7.293E-01         F               0         Blade 1 Y orientation angle, node 5, rad
        216    1.692E-01, -8.200E-01,  5.468E-01         F               0         Blade 1 Z orientation angle, node 5, rad
        217    9.172E-01, -7.200E-02, -3.919E-01         F               0         Blade 1 X orientation angle, node 6, rad
        218    3.607E-01,  5.678E-01,  7.399E-01         F               0         Blade 1 Y orientation angle, node 6, rad
        219    1.692E-01, -8.200E-01,  5.468E-01         F               0         Blade 1 Z orientation angle, node 6, rad
        220    9.249E-01, -5.960E-02, -3.756E-01         F               0         Blade 1 X orientation angle, node 7, rad
        221    3.406E-01,  5.692E-01,  7.483E-01         F               0         Blade 1 Y orientation angle, node 7, rad
        222    1.692E-01, -8.200E-01,  5.468E-01         F               0         Blade 1 Z orientation angle, node 7, rad
        223    9.309E-01, -4.926E-02, -3.620E-01         F               0         Blade 1 X orientation angle, node 8, rad
        224    3.238E-01,  5.702E-01,  7.550E-01         F               0         Blade 1 Y orientation angle, node 8, rad
        225    1.692E-01, -8.200E-01,  5.468E-01         F               0         Blade 1 Z orientation angle, node 8, rad
        226    9.357E-01, -4.049E-02, -3.503E-01         F               0         Blade 1 X orientation angle, node 9, rad
        227    3.094E-01,  5.709E-01,  7.605E-01         F               0         Blade 1 Y orientation angle, node 9, rad