
Linearized model: Predictions were generated on 19-Dec-2023 at 09:27:32 using OpenFAST, compiled as a 64-bit application using single precision at commit v3.5.1
 linked with  NWTC Subroutine Library; ElastoDyn; InflowWind; AeroDyn; ServoDyn; HydroDyn; MoorDyn (v2.0.0, 2023-09-18)

Description from the FAST input file: CCT-9 Campign 4 model. Input files to be run with OpenFAST 3.5.0. GitHub branch from Lu Wang (https://github.com/luwang00/openfast/tree/dev) compiled on March 7, 2023.

Simulation information:
   Simulation time:                  1002.5000 s
   Rotor Speed:                         1.0412 rad/s
   Azimuth:                             1.4470 rad
   Wind Speed:                         12.0000 m/s
   Number of continuous states:        22
   Number of discrete states:           0
   Number of constraint states:         0
   Number of inputs:                 4033
   Number of outputs:                  49
   Jacobians included in this file?    No

Order of continuous states:
   Row/Column Operating Point                     Rotating Frame? Derivative Order Description
   ---------- ---------------                     --------------- ---------------- -----------
          1    1.230E+01                                 F               2         ED Platform horizontal surge translation DOF (internal DOF index = DOF_Sg), m
          2   -2.053E-01                                 F               2         ED Platform horizontal sway translation DOF (internal DOF index = DOF_Sw), m
          3   -2.053E-01                                 F               2         ED Platform vertical heave translation DOF (internal DOF index = DOF_Hv), m
          4    3.761E-02                                 F               2         ED Platform roll tilt rotation DOF (internal DOF index = DOF_R), rad
          5    1.549E-01                                 F               2         ED Platform pitch tilt rotation DOF (internal DOF index = DOF_P), rad
          6    1.343E-02                                 F               2         ED Platform yaw rotation DOF (internal DOF index = DOF_Y), rad
          7    1.075E+00                                 F               2         ED 1st tower fore-aft bending mode DOF (internal DOF index = DOF_TFA1), m
          8    1.356E-01                                 F               2         ED 1st tower side-to-side bending mode DOF (internal DOF index = DOF_TSS1), m
          9    1.599E-03                                 F               2         ED 2nd tower fore-aft bending mode DOF (internal DOF index = DOF_TFA2), m
         10    6.339E-05                                 F               2         ED 2nd tower side-to-side bending mode DOF (internal DOF index = DOF_TSS2), m
         11    6.159E+00                                 F               2         ED Variable speed generator DOF (internal DOF index = DOF_GeAz), rad
         12   -1.151E-05                                 F               2         ED First time derivative of Platform horizontal surge translation DOF (internal DOF index = DOF_Sg), m/s
         13    9.612E-04                                 F               2         ED First time derivative of Platform horizontal sway translation DOF (internal DOF index = DOF_Sw), m/s
         14    4.430E-03                                 F               2         ED First time derivative of Platform vertical heave translation DOF (internal DOF index = DOF_Hv), m/s
         15    4.338E-04                                 F               2         ED First time derivative of Platform roll tilt rotation DOF (internal DOF index = DOF_R), rad/s
         16    5.222E-05                                 F               2         ED First time derivative of Platform pitch tilt rotation DOF (internal DOF index = DOF_P), rad/s
         17   -2.557E-04                                 F               2         ED First time derivative of Platform yaw rotation DOF (internal DOF index = DOF_Y), rad/s
         18   -6.430E-04                                 F               2         ED First time derivative of 1st tower fore-aft bending mode DOF (internal DOF index = DOF_TFA1), m/s
         19    4.137E-03                                 F               2         ED First time derivative of 1st tower side-to-side bending mode DOF (internal DOF index = DOF_TSS1), m/s
         20   -4.320E-06                                 F               2         ED First time derivative of 2nd tower fore-aft bending mode DOF (internal DOF index = DOF_TFA2), m/s
         21   -2.142E-06                                 F               2         ED First time derivative of 2nd tower side-to-side bending mode DOF (internal DOF index = DOF_TSS2), m/s
         22    1.041E+00                                 F               2         ED First time derivative of Variable speed generator DOF (internal DOF index = DOF_GeAz), rad/s

Order of continuous state derivatives:
   Row/Column Operating Point                     Rotating Frame? Derivative Order Description
   ---------- ---------------                     --------------- ---------------- -----------
          1   -1.151E-05                                 F               2         First time derivative of ED Platform horizontal surge translation DOF (internal DOF index = DOF_Sg), m/s
          2    9.612E-04                                 F               2         First time derivative of ED Platform horizontal sway translation DOF (internal DOF index = DOF_Sw), m/s
          3    4.430E-03                                 F               2         First time derivative of ED Platform vertical heave translation DOF (internal DOF index = DOF_Hv), m/s
          4    4.338E-04                                 F               2         First time derivative of ED Platform roll tilt rotation DOF (internal DOF index = DOF_R), rad/s
          5    5.222E-05                                 F               2         First time derivative of ED Platform pitch tilt rotation DOF (internal DOF index = DOF_P), rad/s
          6   -2.557E-04                                 F               2         First time derivative of ED Platform yaw rotation DOF (internal DOF index = DOF_Y), rad/s
          7   -6.430E-04                                 F               2         First time derivative of ED 1st tower fore-aft bending mode DOF (internal DOF index = DOF_TFA1), m/s
          8    4.137E-03                                 F               2         First time derivative of ED 1st tower side-to-side bending mode DOF (internal DOF index = DOF_TSS1), m/s
          9   -4.320E-06                                 F               2         First time derivative of ED 2nd tower fore-aft bending mode DOF (internal DOF index = DOF_TFA2), m/s
         10   -2.142E-06                                 F               2         First time derivative of ED 2nd tower side-to-side bending mode DOF (internal DOF index = DOF_TSS2), m/s
         11    1.041E+00                                 F               2         First time derivative of ED Variable speed generator DOF (internal DOF index = DOF_GeAz), rad/s
         12   -2.676E-04                                 F               2         First time derivative of ED First time derivative of Platform horizontal surge translation DOF (internal DOF index = DOF_Sg), m/s/s
         13   -3.259E-04                                 F               2         First time derivative of ED First time derivative of Platform horizontal sway translation DOF (internal DOF index = DOF_Sw), m/s/s
         14    1.286E-03                                 F               2         First time derivative of ED First time derivative of Platform vertical heave translation DOF (internal DOF index = DOF_Hv), m/s/s
         15    1.986E-04                                 F               2         First time derivative of ED First time derivative of Platform roll tilt rotation DOF (internal DOF index = DOF_R), rad/s/s
         16   -1.163E-05                                 F               2         First time derivative of ED First time derivative of Platform pitch tilt rotation DOF (internal DOF index = DOF_P), rad/s/s
         17   -4.226E-05                                 F               2         First time derivative of ED First time derivative of Platform yaw rotation DOF (internal DOF index = DOF_Y), rad/s/s
         18    4.847E-03                                 F               2         First time derivative of ED First time derivative of 1st tower fore-aft bending mode DOF (internal DOF index = DOF_TFA1), m/s/s
         19   -3.100E-04                                 F               2         First time derivative of ED First time derivative of 1st tower side-to-side bending mode DOF (internal DOF index = DOF_TSS1), m/s/s
         20    2.733E-05                                 F               2         First time derivative of ED First time derivative of 2nd tower fore-aft bending mode DOF (internal DOF index = DOF_TFA2), m/s/s
         21   -5.852E-08                                 F               2         First time derivative of ED First time derivative of 2nd tower side-to-side bending mode DOF (internal DOF index = DOF_TSS2), m/s/s
         22   -1.351E-04                                 F               2         First time derivative of ED First time derivative of Variable speed generator DOF (internal DOF index = DOF_GeAz), rad/s/s

Order of inputs:
     Column   Operating Point                     Rotating Frame? Derivative Order Description
   ---------- ---------------                     --------------- ---------------- -----------
          1   -1.080E+01                                 F               0         IfW X-component position of node 1 (hub), m
          2    0.000E+00                                 F               0         IfW Y-component position of node 1 (hub), m
          3    1.497E+02                                 F               0         IfW Z-component position of node 1 (hub), m
          4    2.600E+01                                 F               0         IfW X-component position of node 2 (blade 1, node 1), m
          5   -1.144E+01                                 F               0         IfW Y-component position of node 2 (blade 1, node 1), m
          6    1.497E+02                                 F               0         IfW Z-component position of node 2 (blade 1, node 1), m
          7    2.606E+01                                 F               0         IfW X-component position of node 3 (blade 1, node 2), m
          8   -1.277E+01                                 F               0         IfW Y-component position of node 3 (blade 1, node 2), m
          9    1.498E+02                                 F               0         IfW Z-component position of node 3 (blade 1, node 2), m
         10    2.684E+01                                 F               0         IfW X-component position of node 4 (blade 1, node 3), m
         11   -3.085E+01                                 F               0         IfW Y-component position of node 4 (blade 1, node 3), m
         12    1.512E+02                                 F               0         IfW Z-component position of node 4 (blade 1, node 3), m
         13    2.701E+01                                 F               0         IfW X-component position of node 5 (blade 1, node 4), m
         14   -3.470E+01                                 F               0         IfW Y-component position of node 5 (blade 1, node 4), m
         15    1.516E+02                                 F               0         IfW Z-component position of node 5 (blade 1, node 4), m
         16    2.717E+01                                 F               0         IfW X-component position of node 6 (blade 1, node 5), m
         17   -3.855E+01                                 F               0         IfW Y-component position of node 6 (blade 1, node 5), m
         18    1.519E+02                                 F               0         IfW Z-component position of node 6 (blade 1, node 5), m
         19    2.734E+01                                 F               0         IfW X-component position of node 7 (blade 1, node 6), m
         20   -4.240E+01                                 F               0         IfW Y-component position of node 7 (blade 1, node 6), m
         21    1.522E+02                                 F               0         IfW Z-component position of node 7 (blade 1, node 6), m
         22    2.751E+01                                 F               0         IfW X-component position of node 8 (blade 1, node 7), m
         23   -4.625E+01                                 F               0         IfW Y-component position of node 8 (blade 1, node 7), m
         24    1.525E+02                                 F               0         IfW Z-component position of node 8 (blade 1, node 7), m
         25    2.767E+01                                 F               0         IfW X-component position of node 9 (blade 1, node 8), m
         26   -5.011E+01                                 F               0         IfW Y-component position of node 9 (blade 1, node 8), m
         27    1.528E+02                                 F               0         IfW Z-component position of node 9 (blade 1, node 8), m
         28    2.784E+01                                 F               0         IfW X-component position of node 10 (blade 1, node 9), m
         29   -5.396E+01                                 F               0         IfW Y-component position of node 10 (blade 1, node 9), m
         30    1.531E+02                                 F               0         IfW Z-component position of node 10 (blade 1, node 9), m
         31    2.801E+01                                 F               0         IfW X-component position of node 11 (blade 1, node 10), m
         32   -5.781E+01                                 F               0         IfW Y-component position of node 11 (blade 1, node 10), m
         33    1.534E+02                                 F               0         IfW Z-component position of node 11 (blade 1, node 10), m
         34    2.818E+01                                 F               0         IfW X-component position of node 12 (blade 1, node 11), m
         35   -6.166E+01                                 F               0         IfW Y-component position of node 12 (blade 1, node 11), m
         36    1.537E+02                                 F               0         IfW Z-component position of node 12 (blade 1, node 11), m
         37    2.834E+01                                 F               0         IfW X-component position of node 13 (blade 1, node 12), m
         38   -6.551E+01                                 F               0         IfW Y-component position of node 13 (blade 1, node 12), m
         39    1.540E+02                                 F               0         IfW Z-component position of node 13 (blade 1, node 12), m
         40    2.851E+01                                 F               0         IfW X-component position of node 14 (blade 1, node 13), m
         41   -6.937E+01                                 F               0         IfW Y-component position of node 14 (blade 1, node 13), m
         42    1.543E+02                                 F               0         IfW Z-component position of node 14 (blade 1, node 13), m
         43    2.868E+01                                 F               0         IfW X-component position of node 15 (blade 1, node 14), m
         44   -7.322E+01                                 F               0         IfW Y-component position of node 15 (blade 1, node 14), m
         45    1.546E+02                                 F               0         IfW Z-component position of node 15 (blade 1, node 14), m
         46    2.884E+01                                 F               0         IfW X-component position of node 16 (blade 1, node 15), m
         47   -7.707E+01                                 F               0         IfW Y-component position of node 16 (blade 1, node 15), m
         48    1.549E+02                                 F               0         IfW Z-component position of node 16 (blade 1, node 15), m
         49    2.901E+01                                 F               0         IfW X-component position of node 17 (blade 1, node 16), m
         50   -8.092E+01                                 F               0         IfW Y-component position of node 17 (blade 1, node 16), m
         51    1.552E+02                                 F               0         IfW Z-component position of node 17 (blade 1, node 16), m
         52    2.918E+01                                 F               0         IfW X-component position of node 18 (blade 1, node 17), m
         53   -8.477E+01                                 F               0         IfW Y-component position of node 18 (blade 1, node 17), m
         54    1.556E+02                                 F               0         IfW Z-component position of node 18 (blade 1, node 17), m
         55    2.934E+01                                 F               0         IfW X-component position of node 19 (blade 1, node 18), m
         56   -8.863E+01                                 F               0         IfW Y-component position of node 19 (blade 1, node 18), m
         57    1.559E+02                                 F               0         IfW Z-component position of node 19 (blade 1, node 18), m
         58    2.951E+01                                 F               0         IfW X-component position of node 20 (blade 1, node 19), m
         59   -9.248E+01                                 F               0         IfW Y-component position of node 20 (blade 1, node 19), m
         60    1.562E+02                                 F               0         IfW Z-component position of node 20 (blade 1, node 19), m
         61    2.968E+01                                 F               0         IfW X-component position of node 21 (blade 1, node 20), m
         62   -9.633E+01                                 F               0         IfW Y-component position of node 21 (blade 1, node 20), m
         63    1.565E+02                                 F               0         IfW Z-component position of node 21 (blade 1, node 20), m
         64    2.984E+01                                 F               0         IfW X-component position of node 22 (blade 1, node 21), m
         65   -1.002E+02                                 F               0         IfW Y-component position of node 22 (blade 1, node 21), m
         66    1.568E+02                                 F               0         IfW Z-component position of node 22 (blade 1, node 21), m
         67    3.001E+01                                 F               0         IfW X-component position of node 23 (blade 1, node 22), m
         68   -1.040E+02                                 F               0         IfW Y-component position of node 23 (blade 1, node 22), m
         69    1.571E+02                                 F               0         IfW Z-component position of node 23 (blade 1, node 22), m
         70    3.018E+01                                 F               0         IfW X-component position of node 24 (blade 1, node 23), m
         71   -1.079E+02                                 F               0         IfW Y-component position of node 24 (blade 1, node 23), m
         72    1.574E+02                                 F               0         IfW Z-component position of node 24 (blade 1, node 23), m
         73    3.035E+01                                 F               0         IfW X-component position of node 25 (blade 1, node 24), m
         74   -1.117E+02                                 F               0         IfW Y-component position of node 25 (blade 1, node 24), m
         75    1.577E+02                                 F               0         IfW Z-component position of node 25 (blade 1, node 24), m
         76    3.051E+01                                 F               0         IfW X-component position of node 26 (blade 1, node 25), m
         77   -1.156E+02                                 F               0         IfW Y-component position of node 26 (blade 1, node 25), m
         78    1.580E+02                                 F               0         IfW Z-component position of node 26 (blade 1, node 25), m
         79    3.068E+01                                 F               0         IfW X-component position of node 27 (blade 1, node 26), m
         80   -1.194E+02                                 F               0         IfW Y-component position of node 27 (blade 1, node 26), m
         81    1.583E+02                                 F               0         IfW Z-component position of node 27 (blade 1, node 26), m
         82    3.085E+01                                 F               0         IfW X-component position of node 28 (blade 1, node 27), m
         83   -1.233E+02                                 F               0         IfW Y-component position of node 28 (blade 1, node 27), m
         84    1.586E+02                                 F               0         IfW Z-component position of node 28 (blade 1, node 27), m
         85    3.099E+01                                 F               0         IfW X-component position of node 29 (blade 1, node 28), m
         86   -1.266E+02                                 F               0         IfW Y-component position of node 29 (blade 1, node 28), m
         87    1.589E+02                                 F               0         IfW Z-component position of node 29 (blade 1, node 28), m
         88    2.437E+01                                 F               0         IfW X-component position of node 30 (blade 2, node 1), m
         89   -3.586E+00                                 F               0         IfW Y-component position of node 30 (blade 2, node 1), m
         90    1.444E+02                                 F               0         IfW Z-component position of node 30 (blade 2, node 1), m
         91    2.403E+01                                 F               0         IfW X-component position of node 31 (blade 2, node 2), m
         92   -3.024E+00                                 F               0         IfW Y-component position of node 31 (blade 2, node 2), m
         93    1.433E+02                                 F               0         IfW Z-component position of node 31 (blade 2, node 2), m
         94    1.948E+01                                 F               0         IfW X-component position of node 32 (blade 2, node 3), m
         95    4.631E+00                                 F               0         IfW Y-component position of node 32 (blade 2, node 3), m
         96    1.275E+02                                 F               0         IfW Z-component position of node 32 (blade 2, node 3), m
         97    1.851E+01                                 F               0         IfW X-component position of node 33 (blade 2, node 4), m
         98    6.262E+00                                 F               0         IfW Y-component position of node 33 (blade 2, node 4), m
         99    1.241E+02                                 F               0         IfW Z-component position of node 33 (blade 2, node 4), m
        100    1.754E+01                                 F               0         IfW X-component position of node 34 (blade 2, node 5), m
        101    7.893E+00                                 F               0         IfW Y-component position of node 34 (blade 2, node 5), m
        102    1.207E+02                                 F               0         IfW Z-component position of node 34 (blade 2, node 5), m
        103    1.657E+01                                 F               0         IfW X-component position of node 35 (blade 2, node 6), m
        104    9.524E+00                                 F               0         IfW Y-component position of node 35 (blade 2, node 6), m
        105    1.173E+02                                 F               0         IfW Z-component position of node 35 (blade 2, node 6), m
        106    1.560E+01                                 F               0         IfW X-component position of node 36 (blade 2, node 7), m
        107    1.115E+01                                 F               0         IfW Y-component position of node 36 (blade 2, node 7), m
        108    1.140E+02                                 F               0         IfW Z-component position of node 36 (blade 2, node 7), m
        109    1.463E+01                                 F               0         IfW X-component position of node 37 (blade 2, node 8), m
        110    1.279E+01                                 F               0         IfW Y-component position of node 37 (blade 2, node 8), m
        111    1.106E+02                                 F               0         IfW Z-component position of node 37 (blade 2, node 8), m
        112    1.366E+01                                 F               0         IfW X-component position of node 38 (blade 2, node 9), m
        113    1.442E+01                                 F               0         IfW Y-component position of node 38 (blade 2, node 9), m
        114    1.072E+02                                 F               0         IfW Z-component position of node 38 (blade 2, node 9), m
        115    1.269E+01                                 F               0         IfW X-component position of node 39 (blade 2, node 10), m
        116    1.605E+01                                 F               0         IfW Y-component position of node 39 (blade 2, node 10), m
        117    1.039E+02                                 F               0         IfW Z-component position of node 39 (blade 2, node 10), m
        118    1.172E+01                                 F               0         IfW X-component position of node 40 (blade 2, node 11), m
        119    1.768E+01                                 F               0         IfW Y-component position of node 40 (blade 2, node 11), m
        120    1.005E+02                                 F               0         IfW Z-component position of node 40 (blade 2, node 11), m
        121    1.075E+01                                 F               0         IfW X-component position of node 41 (blade 2, node 12), m
        122    1.931E+01                                 F               0         IfW Y-component position of node 41 (blade 2, node 12), m
        123    9.712E+01                                 F               0         IfW Z-component position of node 41 (blade 2, node 12), m
        124    9.780E+00                                 F               0         IfW X-component position of node 42 (blade 2, node 13), m
        125    2.094E+01                                 F               0         IfW Y-component position of node 42 (blade 2, node 13), m
        126    9.375E+01                                 F               0         IfW Z-component position of node 42 (blade 2, node 13), m
        127    8.810E+00                                 F               0         IfW X-component position of node 43 (blade 2, node 14), m
        128    2.257E+01                                 F               0         IfW Y-component position of node 43 (blade 2, node 14), m
        129    9.038E+01                                 F               0         IfW Z-component position of node 43 (blade 2, node 14), m
        130    7.840E+00                                 F               0         IfW X-component position of node 44 (blade 2, node 15), m
        131    2.420E+01                                 F               0         IfW Y-component position of node 44 (blade 2, node 15), m
        132    8.701E+01                                 F               0         IfW Z-component position of node 44 (blade 2, node 15), m
        133    6.870E+00                                 F               0         IfW X-component position of node 45 (blade 2, node 16), m
        134    2.583E+01                                 F               0         IfW Y-component position of node 45 (blade 2, node 16), m
        135    8.364E+01                                 F               0         IfW Z-component position of node 45 (blade 2, node 16), m
        136    5.900E+00                                 F               0         IfW X-component position of node 46 (blade 2, node 17), m
        137    2.746E+01                                 F               0         IfW Y-component position of node 46 (blade 2, node 17), m
        138    8.027E+01                                 F               0         IfW Z-component position of node 46 (blade 2, node 17), m
        139    4.930E+00                                 F               0         IfW X-component position of node 47 (blade 2, node 18), m
        140    2.910E+01                                 F               0         IfW Y-component position of node 47 (blade 2, node 18), m
        141    7.690E+01                                 F               0         IfW Z-component position of node 47 (blade 2, node 18), m
        142    3.959E+00                                 F               0         IfW X-component position of node 48 (blade 2, node 19), m
        143    3.073E+01                                 F               0         IfW Y-component position of node 48 (blade 2, node 19), m
        144    7.353E+01                                 F               0         IfW Z-component position of node 48 (blade 2, node 19), m