
Linearized model: Predictions were generated on 02-Feb-2024 at 14:40:18 using OpenFAST, compiled as a 64-bit application using single precision at commit v3.5.1
 linked with  NWTC Subroutine Library; ElastoDyn; AeroDyn; ServoDyn; HydroDyn; MAP++ (<1.20.10>, <Oct-20-2023>)

Description from the FAST input file: CCT-9 Campign 4 model. Input files to be run with OpenFAST 3.5.0. GitHub branch from Lu Wang (https://github.com/luwang00/openfast/tree/dev) compiled on March 7, 2023.

Simulation information:
   Simulation time:                   500.0000 s
   Rotor Speed:                         0.0184 rad/s
   Azimuth:                             4.9573 rad
   Wind Speed:                          0.0000 m/s
   Number of continuous states:         0
   Number of discrete states:           0
   Number of constraint states:         0
   Number of inputs:                 1746
   Number of outputs:                   4
   Jacobians included in this file?    No

Order of inputs:
     Column   Operating Point                     Rotating Frame? Derivative Order Description
   ---------- ---------------                     --------------- ---------------- -----------
          1    2.509E-01                                 F               0         Tower X translation displacement, node 1, m
          2   -1.446E+00                                 F               0         Tower Y translation displacement, node 1, m
          3   -5.431E-02                                 F               0         Tower Z translation displacement, node 1, m
          4    5.112E-01                                 F               0         Tower X translation displacement, node 2, m
          5   -2.010E+00                                 F               0         Tower Y translation displacement, node 2, m
          6   -6.997E-02                                 F               0         Tower Z translation displacement, node 2, m
          7    7.708E-01                                 F               0         Tower X translation displacement, node 3, m
          8   -2.580E+00                                 F               0         Tower Y translation displacement, node 3, m
          9   -8.586E-02                                 F               0         Tower Z translation displacement, node 3, m
         10    1.029E+00                                 F               0         Tower X translation displacement, node 4, m
         11   -3.155E+00                                 F               0         Tower Y translation displacement, node 4, m
         12   -1.019E-01                                 F               0         Tower Z translation displacement, node 4, m
         13    1.285E+00                                 F               0         Tower X translation displacement, node 5, m
         14   -3.733E+00                                 F               0         Tower Y translation displacement, node 5, m
         15   -1.181E-01                                 F               0         Tower Z translation displacement, node 5, m
         16    1.539E+00                                 F               0         Tower X translation displacement, node 6, m
         17   -4.314E+00                                 F               0         Tower Y translation displacement, node 6, m
         18   -1.344E-01                                 F               0         Tower Z translation displacement, node 6, m
         19    1.790E+00                                 F               0         Tower X translation displacement, node 7, m
         20   -4.898E+00                                 F               0         Tower Y translation displacement, node 7, m
         21   -1.507E-01                                 F               0         Tower Z translation displacement, node 7, m
         22    2.039E+00                                 F               0         Tower X translation displacement, node 8, m
         23   -5.483E+00                                 F               0         Tower Y translation displacement, node 8, m
         24   -1.671E-01                                 F               0         Tower Z translation displacement, node 8, m
         25    2.285E+00                                 F               0         Tower X translation displacement, node 9, m
         26   -6.070E+00                                 F               0         Tower Y translation displacement, node 9, m
         27   -1.836E-01                                 F               0         Tower Z translation displacement, node 9, m
         28    2.530E+00                                 F               0         Tower X translation displacement, node 10, m
         29   -6.659E+00                                 F               0         Tower Y translation displacement, node 10, m
         30   -2.000E-01                                 F               0         Tower Z translation displacement, node 10, m
         31    2.772E+00                                 F               0         Tower X translation displacement, node 11, m
         32   -7.248E+00                                 F               0         Tower Y translation displacement, node 11, m
         33   -2.164E-01                                 F               0         Tower Z translation displacement, node 11, m
         34    9.997E-01, -6.549E-03, -2.140E-02         F               0         Tower X orientation angle, node 1, rad
         35    7.515E-03,  9.989E-01,  4.538E-02         F               0         Tower Y orientation angle, node 1, rad
         36    2.108E-02, -4.553E-02,  9.987E-01         F               0         Tower Z orientation angle, node 1, rad
         37    9.998E-01, -6.551E-03, -2.136E-02         F               0         Tower X orientation angle, node 2, rad
         38    7.524E-03,  9.989E-01,  4.579E-02         F               0         Tower Y orientation angle, node 2, rad
         39    2.104E-02, -4.594E-02,  9.987E-01         F               0         Tower Z orientation angle, node 2, rad
         40    9.998E-01, -6.554E-03, -2.128E-02         F               0         Tower X orientation angle, node 3, rad
         41    7.532E-03,  9.989E-01,  4.616E-02         F               0         Tower Y orientation angle, node 3, rad
         42    2.096E-02, -4.631E-02,  9.987E-01         F               0         Tower Z orientation angle, node 3, rad
         43    9.998E-01, -6.560E-03, -2.115E-02         F               0         Tower X orientation angle, node 4, rad
         44    7.538E-03,  9.989E-01,  4.649E-02         F               0         Tower Y orientation angle, node 4, rad
         45    2.082E-02, -4.663E-02,  9.987E-01         F               0         Tower Z orientation angle, node 4, rad
         46    9.998E-01, -6.568E-03, -2.098E-02         F               0         Tower X orientation angle, node 5, rad
         47    7.544E-03,  9.989E-01,  4.676E-02         F               0         Tower Y orientation angle, node 5, rad
         48    2.065E-02, -4.691E-02,  9.987E-01         F               0         Tower Z orientation angle, node 5, rad
         49    9.998E-01, -6.578E-03, -2.078E-02         F               0         Tower X orientation angle, node 6, rad
         50    7.549E-03,  9.989E-01,  4.699E-02         F               0         Tower Y orientation angle, node 6, rad
         51    2.045E-02, -4.714E-02,  9.987E-01         F               0         Tower Z orientation angle, node 6, rad
         52    9.998E-01, -6.588E-03, -2.057E-02         F               0         Tower X orientation angle, node 7, rad
         53    7.552E-03,  9.989E-01,  4.718E-02         F               0         Tower Y orientation angle, node 7, rad
         54    2.023E-02, -4.732E-02,  9.987E-01         F               0         Tower Z orientation angle, node 7, rad
         55    9.998E-01, -6.597E-03, -2.036E-02         F               0         Tower X orientation angle, node 8, rad
         56    7.555E-03,  9.989E-01,  4.732E-02         F               0         Tower Y orientation angle, node 8, rad
         57    2.002E-02, -4.747E-02,  9.987E-01         F               0         Tower Z orientation angle, node 8, rad
         58    9.998E-01, -6.606E-03, -2.018E-02         F               0         Tower X orientation angle, node 9, rad
         59    7.557E-03,  9.988E-01,  4.743E-02         F               0         Tower Y orientation angle, node 9, rad
         60    1.984E-02, -4.757E-02,  9.987E-01         F               0         Tower Z orientation angle, node 9, rad
         61    9.998E-01, -6.612E-03, -2.005E-02         F               0         Tower X orientation angle, node 10, rad
         62    7.558E-03,  9.988E-01,  4.750E-02         F               0         Tower Y orientation angle, node 10, rad
         63    1.971E-02, -4.764E-02,  9.987E-01         F               0         Tower Z orientation angle, node 10, rad
         64    9.998E-01, -6.616E-03, -1.996E-02         F               0         Tower X orientation angle, node 11, rad
         65    7.559E-03,  9.988E-01,  4.754E-02         F               0         Tower Y orientation angle, node 11, rad
         66    1.962E-02, -4.768E-02,  9.987E-01         F               0         Tower Z orientation angle, node 11, rad
         67   -1.273E-03                                 F               0         Tower X translation velocity, node 1, m/s
         68    4.448E-03                                 F               0         Tower Y translation velocity, node 1, m/s
         69    2.545E-04                                 F               0         Tower Z translation velocity, node 1, m/s
         70   -1.686E-03                                 F               0         Tower X translation velocity, node 2, m/s
         71    6.524E-03                                 F               0         Tower Y translation velocity, node 2, m/s
         72    3.582E-04                                 F               0         Tower Z translation velocity, node 2, m/s
         73   -2.106E-03                                 F               0         Tower X translation velocity, node 3, m/s
         74    8.635E-03                                 F               0         Tower Y translation velocity, node 3, m/s
         75    4.646E-04                                 F               0         Tower Z translation velocity, node 3, m/s
         76   -2.529E-03                                 F               0         Tower X translation velocity, node 4, m/s
         77    1.077E-02                                 F               0         Tower Y translation velocity, node 4, m/s
         78    5.730E-04                                 F               0         Tower Z translation velocity, node 4, m/s
         79   -2.957E-03                                 F               0         Tower X translation velocity, node 5, m/s
         80    1.294E-02                                 F               0         Tower Y translation velocity, node 5, m/s
         81    6.831E-04                                 F               0         Tower Z translation velocity, node 5, m/s
         82   -3.388E-03                                 F               0         Tower X translation velocity, node 6, m/s
         83    1.512E-02                                 F               0         Tower Y translation velocity, node 6, m/s
         84    7.948E-04                                 F               0         Tower Z translation velocity, node 6, m/s
         85   -3.821E-03                                 F               0         Tower X translation velocity, node 7, m/s
         86    1.731E-02                                 F               0         Tower Y translation velocity, node 7, m/s
         87    9.075E-04                                 F               0         Tower Z translation velocity, node 7, m/s
         88   -4.257E-03                                 F               0         Tower X translation velocity, node 8, m/s
         89    1.952E-02                                 F               0         Tower Y translation velocity, node 8, m/s
         90    1.021E-03                                 F               0         Tower Z translation velocity, node 8, m/s
         91   -4.694E-03                                 F               0         Tower X translation velocity, node 9, m/s
         92    2.175E-02                                 F               0         Tower Y translation velocity, node 9, m/s
         93    1.136E-03                                 F               0         Tower Z translation velocity, node 9, m/s
         94   -5.133E-03                                 F               0         Tower X translation velocity, node 10, m/s
         95    2.397E-02                                 F               0         Tower Y translation velocity, node 10, m/s
         96    1.251E-03                                 F               0         Tower Z translation velocity, node 10, m/s
         97   -5.572E-03                                 F               0         Tower X translation velocity, node 11, m/s
         98    2.621E-02                                 F               0         Tower Y translation velocity, node 11, m/s
         99    1.366E-03                                 F               0         Tower Z translation velocity, node 11, m/s
        100    2.929E+00                                 F               0         Hub X translation displacement, node 1, m
        101   -7.550E+00                                 F               0         Hub Y translation displacement, node 1, m
        102   -1.129E-02                                 F               0         Hub Z translation displacement, node 1, m
        103    9.923E-01, -1.596E-03, -1.242E-01         F               0         Hub X orientation angle, node 1, rad
        104   -1.185E-01,  2.889E-01, -9.500E-01         F               0         Hub Y orientation angle, node 1, rad
        105    3.741E-02,  9.574E-01,  2.864E-01         F               0         Hub Z orientation angle, node 1, rad
        106    1.808E-02                                 F               0         Hub X rotation velocity, node 1, rad/s
        107   -6.184E-05                                 F               0         Hub Y rotation velocity, node 1, rad/s
        108   -2.353E-03                                 F               0         Hub Z rotation velocity, node 1, rad/s
        109    9.953E-01, -1.017E-02, -9.600E-02         F               0         Blade root 1 X orientation angle, node 1, rad
        110   -8.900E-02,  2.887E-01, -9.533E-01         F               0         Blade root 1 Y orientation angle, node 1, rad
        111    3.741E-02,  9.574E-01,  2.864E-01         F               0         Blade root 1 Z orientation angle, node 1, rad
        112    9.891E-01, -2.191E-02, -1.456E-01         F               0         Blade root 2 X orientation angle, node 1, rad
        113    1.210E-01,  6.843E-01,  7.191E-01         F               0         Blade root 2 Y orientation angle, node 1, rad
        114    8.391E-02, -7.289E-01,  6.795E-01         F               0         Blade root 2 Z orientation angle, node 1, rad
        115    9.910E-01,  2.729E-02, -1.309E-01         F               0         Blade root 3 X orientation angle, node 1, rad
        116    5.627E-02, -9.732E-01,  2.231E-01         F               0         Blade root 3 Y orientation angle, node 1, rad
        117   -1.213E-01, -2.285E-01, -9.660E-01         F               0         Blade root 3 Z orientation angle, node 1, rad
        118    2.557E+00                                 F               0         Blade 1 X translation displacement, node 1, m
        119   -2.247E+00                                 F               0         Blade 1 Y translation displacement, node 1, m
        120   -3.934E+00                                 F               0         Blade 1 Z translation displacement, node 1, m
        121    2.467E+00                                 F               0         Blade 1 X translation displacement, node 2, m
        122   -9.686E-01                                 F               0         Blade 1 Y translation displacement, node 2, m
        123   -4.879E+00                                 F               0         Blade 1 Z translation displacement, node 2, m
        124    1.249E+00                                 F               0         Blade 1 X translation displacement, node 3, m
        125    1.641E+01                                 F               0         Blade 1 Y translation displacement, node 3, m
        126   -1.773E+01                                 F               0         Blade 1 Z translation displacement, node 3, m
        127    9.893E-01                                 F               0         Blade 1 X translation displacement, node 4, m
        128    2.011E+01                                 F               0         Blade 1 Y translation displacement, node 4, m
        129   -2.047E+01                                 F               0         Blade 1 Z translation displacement, node 4, m
        130    7.296E-01                                 F               0         Blade 1 X translation displacement, node 5, m
        131    2.382E+01                                 F               0         Blade 1 Y translation displacement, node 5, m
        132   -2.321E+01                                 F               0         Blade 1 Z translation displacement, node 5, m
        133    4.700E-01                                 F               0         Blade 1 X translation displacement, node 6, m
        134    2.752E+01                                 F               0         Blade 1 Y translation displacement, node 6, m
        135   -2.595E+01                                 F               0         Blade 1 Z translation displacement, node 6, m
        136    2.104E-01                                 F               0         Blade 1 X translation displacement, node 7, m
        137    3.122E+01                                 F               0         Blade 1 Y translation displacement, node 7, m
        138   -2.869E+01                                 F               0         Blade 1 Z translation displacement, node 7, m
        139   -4.919E-02                                 F               0         Blade 1 X translation displacement, node 8, m
        140    3.492E+01                                 F               0         Blade 1 Y translation displacement, node 8, m
        141   -3.143E+01                                 F               0         Blade 1 Z translation displacement, node 8, m
        142   -3.088E-01                                 F               0         Blade 1 X translation displacement, node 9, m
        143    3.863E+01                                 F               0         Blade 1 Y translation displacement, node 9, m
        144   -3.416E+01                                 F               0         Blade 1 Z translation displacement, node 9, m
        145   -5.684E-01                                 F               0         Blade 1 X translation displacement, node 10, m
        146    4.233E+01                                 F               0         Blade 1 Y translation displacement, node 10, m
        147   -3.690E+01                                 F               0         Blade 1 Z translation displacement, node 10, m
        148   -8.280E-01                                 F               0         Blade 1 X translation displacement, node 11, m
        149    4.603E+01                                 F               0         Blade 1 Y translation displacement, node 11, m
        150   -3.964E+01                                 F               0         Blade 1 Z translation displacement, node 11, m
        151   -1.088E+00                                 F               0         Blade 1 X translation displacement, node 12, m
        152    4.974E+01                                 F               0         Blade 1 Y translation displacement, node 12, m
        153   -4.238E+01                                 F               0         Blade 1 Z translation displacement, node 12, m
        154   -1.347E+00                                 F               0         Blade 1 X translation displacement, node 13, m
        155    5.344E+01                                 F               0         Blade 1 Y translation displacement, node 13, m
        156   -4.512E+01                                 F               0         Blade 1 Z translation displacement, node 13, m
        157   -1.607E+00                                 F               0         Blade 1 X translation displacement, node 14, m
        158    5.714E+01                                 F               0         Blade 1 Y translation displacement, node 14, m
        159   -4.786E+01                                 F               0         Blade 1 Z translation displacement, node 14, m
        160   -1.866E+00                                 F               0         Blade 1 X translation displacement, node 15, m
        161    6.084E+01                                 F               0         Blade 1 Y translation displacement, node 15, m
        162   -5.060E+01                                 F               0         Blade 1 Z translation displacement, node 15, m
        163   -2.126E+00                                 F               0         Blade 1 X translation displacement, node 16, m
        164    6.455E+01                                 F               0         Blade 1 Y translation displacement, node 16, m
        165   -5.333E+01                                 F               0         Blade 1 Z translation displacement, node 16, m
        166   -2.386E+00                                 F               0         Blade 1 X translation displacement, node 17, m
        167    6.825E+01                                 F               0         Blade 1 Y translation displacement, node 17, m
        168   -5.607E+01                                 F               0         Blade 1 Z translation displacement, node 17, m
        169   -2.645E+00                                 F               0         Blade 1 X translation displacement, node 18, m
        170    7.195E+01                                 F               0         Blade 1 Y translation displacement, node 18, m
        171   -5.881E+01                                 F               0         Blade 1 Z translation displacement, node 18, m
        172   -2.905E+00                                 F               0         Blade 1 X translation displacement, node 19, m
        173    7.566E+01                                 F               0         Blade 1 Y translation displacement, node 19, m
        174   -6.155E+01                                 F               0         Blade 1 Z translation displacement, node 19, m
        175   -3.164E+00                                 F               0         Blade 1 X translation displacement, node 20, m
        176    7.936E+01                                 F               0         Blade 1 Y translation displacement, node 20, m
        177   -6.429E+01                                 F               0         Blade 1 Z translation displacement, node 20, m
        178   -3.424E+00                                 F               0         Blade 1 X translation displacement, node 21, m
        179    8.306E+01                                 F               0         Blade 1 Y translation displacement, node 21, m
        180   -6.703E+01                                 F               0         Blade 1 Z translation displacement, node 21, m
        181   -3.684E+00                                 F               0         Blade 1 X translation displacement, node 22, m
        182    8.676E+01                                 F               0         Blade 1 Y translation displacement, node 22, m
        183   -6.977E+01                                 F               0         Blade 1 Z translation displacement, node 22, m
        184   -3.943E+00                                 F               0         Blade 1 X translation displacement, node 23, m
        185    9.047E+01                                 F               0         Blade 1 Y translation displacement, node 23, m
        186   -7.251E+01                                 F               0         Blade 1 Z translation displacement, node 23, m
        187   -4.203E+00                                 F               0         Blade 1 X translation displacement, node 24, m
        188    9.417E+01                                 F               0         Blade 1 Y translation displacement, node 24, m
        189   -7.524E+01                                 F               0         Blade 1 Z translation displacement, node 24, m
        190   -4.463E+00                                 F               0         Blade 1 X translation displacement, node 25, m
        191    9.787E+01                                 F               0         Blade 1 Y translation displacement, node 25, m
        192   -7.798E+01                                 F               0         Blade 1 Z translation displacement, node 25, m
        193   -4.722E+00                                 F               0         Blade 1 X translation displacement, node 26, m
        194    1.016E+02                                 F               0         Blade 1 Y translation displacement, node 26, m
        195   -8.072E+01                                 F               0         Blade 1 Z translation displacement, node 26, m
        196   -4.982E+00                                 F               0         Blade 1 X translation displacement, node 27, m
        197    1.053E+02                                 F               0         Blade 1 Y translation displacement, node 27, m
        198   -8.346E+01                                 F               0         Blade 1 Z translation displacement, node 27, m
        199   -5.202E+00                                 F               0         Blade 1 X translation displacement, node 28, m
        200    1.084E+02                                 F               0         Blade 1 Y translation displacement, node 28, m
        201   -8.578E+01                                 F               0         Blade 1 Z translation displacement, node 28, m
        202    9.264E-01, -1.407E-01,  3.493E-01         F               0         Blade 1 X orientation angle, node 1, rad
        203    3.747E-01,  2.523E-01, -8.922E-01         F               0         Blade 1 Y orientation angle, node 1, rad
        204    3.741E-02,  9.574E-01,  2.864E-01         F               0         Blade 1 Z orientation angle, node 1, rad
        205    9.264E-01, -1.407E-01,  3.493E-01         F               0         Blade 1 X orientation angle, node 2, rad
        206    3.747E-01,  2.523E-01, -8.922E-01         F               0         Blade 1 Y orientation angle, node 2, rad
        207    3.741E-02,  9.574E-01,  2.864E-01         F               0         Blade 1 Z orientation angle, node 2, rad
        208    9.888E-01, -7.689E-02,  1.279E-01         F               0         Blade 1 X orientation angle, node 3, rad
        209    1.444E-01,  2.785E-01, -9.495E-01         F               0         Blade 1 Y orientation angle, node 3, rad
        210    3.741E-02,  9.574E-01,  2.864E-01         F               0         Blade 1 Z orientation angle, node 3, rad
        211    9.940E-01, -6.507E-02,  8.766E-02         F               0         Blade 1 X orientation angle, node 4, rad
        212    1.026E-01,  2.815E-01, -9.541E-01         F               0         Blade 1 Y orientation angle, node 4, rad
        213    3.741E-02,  9.574E-01,  2.864E-01         F               0         Blade 1 Z orientation angle, node 4, rad
        214    9.969E-01, -5.570E-02,  5.597E-02         F               0         Blade 1 X orientation angle, node 5, rad
        215    6.954E-02,  2.835E-01, -9.565E-01         F               0         Blade 1 Y orientation angle, node 5, rad
        216    3.741E-02,  9.574E-01,  2.864E-01         F               0         Blade 1 Z orientation angle, node 5, rad
        217    9.984E-01, -4.816E-02,  3.058E-02         F               0         Blade 1 X orientation angle, node 6, rad
        218    4.308E-02,  2.848E-01, -9.576E-01         F               0         Blade 1 Y orientation angle, node 6, rad
        219    3.741E-02,  9.574E-01,  2.864E-01         F               0         Blade 1 Z orientation angle, node 6, rad
        220    9.991E-01, -4.193E-02,  9.687E-03         F               0         Blade 1 X orientation angle, node 7, rad
        221    2.129E-02,  2.858E-01, -9.580E-01         F               0         Blade 1 Y orientation angle, node 7, rad
        222    3.741E-02,  9.574E-01,  2.864E-01         F               0         Blade 1 Z orientation angle, node 7, rad
        223    9.993E-01, -3.674E-02, -7.704E-03         F               0         Blade 1 X orientation angle, node 8, rad
        224    3.149E-03,  2.865E-01, -9.581E-01         F               0         Blade 1 Y orientation angle, node 8, rad
        225    3.741E-02,  9.574E-01,  2.864E-01         F               0         Blade 1 Z orientation angle, node 8, rad
        226    9.992E-01, -3.233E-02, -2.242E-02         F               0         Blade 1 X orientation angle, node 9, rad
        227   -1.220E-02,  2.871E-01, -9.578E-01         F               0         Blade 1 Y orientation angle, node 9, rad