
Linearized model: Predictions were generated on 02-Feb-2024 at 14:40:18 using OpenFAST, compiled as a 64-bit application using single precision at commit v3.5.1
 linked with  NWTC Subroutine Library; ElastoDyn; AeroDyn; ServoDyn; HydroDyn; MAP++ (<1.20.10>, <Oct-20-2023>)

Description from the FAST input file: CCT-9 Campign 4 model. Input files to be run with OpenFAST 3.5.0. GitHub branch from Lu Wang (https://github.com/luwang00/openfast/tree/dev) compiled on March 7, 2023.

Simulation information:
   Simulation time:                   500.0000 s
   Rotor Speed:                         0.0184 rad/s
   Azimuth:                             4.9573 rad
   Wind Speed:                          0.0000 m/s
   Number of continuous states:        22
   Number of discrete states:           0
   Number of constraint states:         0
   Number of inputs:                 3685
   Number of outputs:                  35
   Jacobians included in this file?    No

Order of continuous states:
   Row/Column Operating Point                     Rotating Frame? Derivative Order Description
   ---------- ---------------                     --------------- ---------------- -----------
          1   -1.356E-01                                 F               2         ED Platform horizontal surge translation DOF (internal DOF index = DOF_Sg), m
          2   -6.106E-01                                 F               2         ED Platform horizontal sway translation DOF (internal DOF index = DOF_Sw), m
          3   -3.121E-02                                 F               2         ED Platform vertical heave translation DOF (internal DOF index = DOF_Hv), m
          4    4.551E-02                                 F               2         ED Platform roll tilt rotation DOF (internal DOF index = DOF_R), rad
          5    2.126E-02                                 F               2         ED Platform pitch tilt rotation DOF (internal DOF index = DOF_P), rad
          6   -7.041E-03                                 F               2         ED Platform yaw rotation DOF (internal DOF index = DOF_Y), rad
          7   -8.264E-02                                 F               2         ED 1st tower fore-aft bending mode DOF (internal DOF index = DOF_TFA1), m
          8    1.772E-01                                 F               2         ED 1st tower side-to-side bending mode DOF (internal DOF index = DOF_TSS1), m
          9    1.360E-03                                 F               2         ED 2nd tower fore-aft bending mode DOF (internal DOF index = DOF_TFA2), m
         10    7.835E-05                                 F               2         ED 2nd tower side-to-side bending mode DOF (internal DOF index = DOF_TSS2), m
         11    3.387E+00                                 F               2         ED Variable speed generator DOF (internal DOF index = DOF_GeAz), rad
         12   -6.617E-04                                 F               2         ED First time derivative of Platform horizontal surge translation DOF (internal DOF index = DOF_Sg), m/s
         13    1.386E-03                                 F               2         ED First time derivative of Platform horizontal sway translation DOF (internal DOF index = DOF_Sw), m/s
         14    1.020E-04                                 F               2         ED First time derivative of Platform vertical heave translation DOF (internal DOF index = DOF_Hv), m/s
         15   -1.686E-04                                 F               2         ED First time derivative of Platform roll tilt rotation DOF (internal DOF index = DOF_R), rad/s
         16   -3.034E-05                                 F               2         ED First time derivative of Platform pitch tilt rotation DOF (internal DOF index = DOF_P), rad/s
         17   -6.621E-05                                 F               2         ED First time derivative of Platform yaw rotation DOF (internal DOF index = DOF_Y), rad/s
         18   -1.805E-04                                 F               2         ED First time derivative of 1st tower fore-aft bending mode DOF (internal DOF index = DOF_TFA1), m/s
         19   -1.125E-03                                 F               2         ED First time derivative of 1st tower side-to-side bending mode DOF (internal DOF index = DOF_TSS1), m/s
         20   -4.285E-08                                 F               2         ED First time derivative of 2nd tower fore-aft bending mode DOF (internal DOF index = DOF_TFA2), m/s
         21   -3.753E-07                                 F               2         ED First time derivative of 2nd tower side-to-side bending mode DOF (internal DOF index = DOF_TSS2), m/s
         22    1.840E-02                                 F               2         ED First time derivative of Variable speed generator DOF (internal DOF index = DOF_GeAz), rad/s

Order of continuous state derivatives:
   Row/Column Operating Point                     Rotating Frame? Derivative Order Description
   ---------- ---------------                     --------------- ---------------- -----------
          1   -6.617E-04                                 F               2         First time derivative of ED Platform horizontal surge translation DOF (internal DOF index = DOF_Sg), m/s
          2    1.386E-03                                 F               2         First time derivative of ED Platform horizontal sway translation DOF (internal DOF index = DOF_Sw), m/s
          3    1.020E-04                                 F               2         First time derivative of ED Platform vertical heave translation DOF (internal DOF index = DOF_Hv), m/s
          4   -1.686E-04                                 F               2         First time derivative of ED Platform roll tilt rotation DOF (internal DOF index = DOF_R), rad/s
          5   -3.034E-05                                 F               2         First time derivative of ED Platform pitch tilt rotation DOF (internal DOF index = DOF_P), rad/s
          6   -6.621E-05                                 F               2         First time derivative of ED Platform yaw rotation DOF (internal DOF index = DOF_Y), rad/s
          7   -1.805E-04                                 F               2         First time derivative of ED 1st tower fore-aft bending mode DOF (internal DOF index = DOF_TFA1), m/s
          8   -1.125E-03                                 F               2         First time derivative of ED 1st tower side-to-side bending mode DOF (internal DOF index = DOF_TSS1), m/s
          9   -4.285E-08                                 F               2         First time derivative of ED 2nd tower fore-aft bending mode DOF (internal DOF index = DOF_TFA2), m/s
         10   -3.753E-07                                 F               2         First time derivative of ED 2nd tower side-to-side bending mode DOF (internal DOF index = DOF_TSS2), m/s
         11    1.840E-02                                 F               2         First time derivative of ED Variable speed generator DOF (internal DOF index = DOF_GeAz), rad/s
         12    2.440E-05                                 F               2         First time derivative of ED First time derivative of Platform horizontal surge translation DOF (internal DOF index = DOF_Sg), m/s/s
         13   -3.062E-05                                 F               2         First time derivative of ED First time derivative of Platform horizontal sway translation DOF (internal DOF index = DOF_Sw), m/s/s
         14    1.816E-04                                 F               2         First time derivative of ED First time derivative of Platform vertical heave translation DOF (internal DOF index = DOF_Hv), m/s/s
         15    2.518E-05                                 F               2         First time derivative of ED First time derivative of Platform roll tilt rotation DOF (internal DOF index = DOF_R), rad/s/s
         16    2.970E-05                                 F               2         First time derivative of ED First time derivative of Platform pitch tilt rotation DOF (internal DOF index = DOF_P), rad/s/s
         17   -7.281E-06                                 F               2         First time derivative of ED First time derivative of Platform yaw rotation DOF (internal DOF index = DOF_Y), rad/s/s
         18    2.278E-04                                 F               2         First time derivative of ED First time derivative of 1st tower fore-aft bending mode DOF (internal DOF index = DOF_TFA1), m/s/s
         19    1.600E-04                                 F               2         First time derivative of ED First time derivative of 1st tower side-to-side bending mode DOF (internal DOF index = DOF_TSS1), m/s/s
         20   -8.681E-07                                 F               2         First time derivative of ED First time derivative of 2nd tower fore-aft bending mode DOF (internal DOF index = DOF_TFA2), m/s/s
         21    1.718E-07                                 F               2         First time derivative of ED First time derivative of 2nd tower side-to-side bending mode DOF (internal DOF index = DOF_TSS2), m/s/s
         22   -1.603E-04                                 F               2         First time derivative of ED First time derivative of Variable speed generator DOF (internal DOF index = DOF_GeAz), rad/s/s

Order of inputs:
     Column   Operating Point                     Rotating Frame? Derivative Order Description
   ---------- ---------------                     --------------- ---------------- -----------
          1    0.000E+00                                 F               0         SrvD Yaw, rad
          2    0.000E+00                                 F               0         SrvD YawRate, rad/s
          3    1.840E-02                                 F               0         SrvD HSS_Spd, rad/s
          4   -1.580E-03                                 F               0         ED Blade 1 X force, node 1, N
          5    4.132E-03                                 F               0         ED Blade 1 Y force, node 1, N
          6   -1.360E-02                                 F               0         ED Blade 1 Z force, node 1, N
          7   -2.523E-02                                 F               0         ED Blade 1 X force, node 2, N
          8    4.310E-03                                 F               0         ED Blade 1 Y force, node 2, N
          9   -1.111E-02                                 F               0         ED Blade 1 Z force, node 2, N
         10   -8.297E-02                                 F               0         ED Blade 1 X force, node 3, N
         11    7.655E-03                                 F               0         ED Blade 1 Y force, node 3, N
         12   -1.475E-02                                 F               0         ED Blade 1 Z force, node 3, N
         13   -1.442E-01                                 F               0         ED Blade 1 X force, node 4, N
         14    1.187E-02                                 F               0         ED Blade 1 Y force, node 4, N
         15   -2.083E-02                                 F               0         ED Blade 1 Z force, node 4, N
         16   -2.054E-01                                 F               0         ED Blade 1 X force, node 5, N
         17    1.608E-02                                 F               0         ED Blade 1 Y force, node 5, N
         18   -2.692E-02                                 F               0         ED Blade 1 Z force, node 5, N
         19   -2.666E-01                                 F               0         ED Blade 1 X force, node 6, N
         20    2.029E-02                                 F               0         ED Blade 1 Y force, node 6, N
         21   -3.300E-02                                 F               0         ED Blade 1 Z force, node 6, N
         22   -3.278E-01                                 F               0         ED Blade 1 X force, node 7, N
         23    2.450E-02                                 F               0         ED Blade 1 Y force, node 7, N
         24   -3.908E-02                                 F               0         ED Blade 1 Z force, node 7, N
         25   -3.890E-01                                 F               0         ED Blade 1 X force, node 8, N
         26    2.871E-02                                 F               0         ED Blade 1 Y force, node 8, N
         27   -4.517E-02                                 F               0         ED Blade 1 Z force, node 8, N
         28   -4.502E-01                                 F               0         ED Blade 1 X force, node 9, N
         29    3.293E-02                                 F               0         ED Blade 1 Y force, node 9, N
         30   -5.125E-02                                 F               0         ED Blade 1 Z force, node 9, N
         31   -5.115E-01                                 F               0         ED Blade 1 X force, node 10, N
         32    3.714E-02                                 F               0         ED Blade 1 Y force, node 10, N
         33   -5.733E-02                                 F               0         ED Blade 1 Z force, node 10, N
         34   -5.727E-01                                 F               0         ED Blade 1 X force, node 11, N
         35    4.135E-02                                 F               0         ED Blade 1 Y force, node 11, N
         36   -6.342E-02                                 F               0         ED Blade 1 Z force, node 11, N
         37   -6.339E-01                                 F               0         ED Blade 1 X force, node 12, N
         38    4.556E-02                                 F               0         ED Blade 1 Y force, node 12, N
         39   -6.950E-02                                 F               0         ED Blade 1 Z force, node 12, N
         40   -6.951E-01                                 F               0         ED Blade 1 X force, node 13, N
         41    4.977E-02                                 F               0         ED Blade 1 Y force, node 13, N
         42   -7.558E-02                                 F               0         ED Blade 1 Z force, node 13, N
         43   -7.563E-01                                 F               0         ED Blade 1 X force, node 14, N
         44    5.398E-02                                 F               0         ED Blade 1 Y force, node 14, N
         45   -8.166E-02                                 F               0         ED Blade 1 Z force, node 14, N
         46   -8.175E-01                                 F               0         ED Blade 1 X force, node 15, N
         47    5.820E-02                                 F               0         ED Blade 1 Y force, node 15, N
         48   -8.775E-02                                 F               0         ED Blade 1 Z force, node 15, N
         49   -8.787E-01                                 F               0         ED Blade 1 X force, node 16, N
         50    6.241E-02                                 F               0         ED Blade 1 Y force, node 16, N
         51   -9.383E-02                                 F               0         ED Blade 1 Z force, node 16, N
         52   -1.089E+00                                 F               0         ED Blade 1 X force, node 17, N
         53    7.706E-02                                 F               0         ED Blade 1 Y force, node 17, N
         54   -1.153E-01                                 F               0         ED Blade 1 Z force, node 17, N
         55   -8.292E-01                                 F               0         ED Blade 1 X force, node 18, N
         56    5.747E-02                                 F               0         ED Blade 1 Y force, node 18, N
         57   -8.380E-02                                 F               0         ED Blade 1 Z force, node 18, N
         58   -1.011E+00                                 F               0         ED Blade 1 X force, node 19, N
         59    6.843E-02                                 F               0         ED Blade 1 Y force, node 19, N
         60   -9.667E-02                                 F               0         ED Blade 1 Z force, node 19, N
         61   -8.571E-01                                 F               0         ED Blade 1 X force, node 20, N
         62    5.669E-02                                 F               0         ED Blade 1 Y force, node 20, N
         63   -7.756E-02                                 F               0         ED Blade 1 Z force, node 20, N
         64   -1.262E+00                                 F               0         ED Blade 1 X force, node 21, N
         65    8.111E-02                                 F               0         ED Blade 1 Y force, node 21, N
         66   -1.063E-01                                 F               0         ED Blade 1 Z force, node 21, N
         67   -1.118E+00                                 F               0         ED Blade 1 X force, node 22, N
         68    6.955E-02                                 F               0         ED Blade 1 Y force, node 22, N
         69   -8.648E-02                                 F               0         ED Blade 1 Z force, node 22, N
         70   -1.152E+00                                 F               0         ED Blade 1 X force, node 23, N
         71    6.962E-02                                 F               0         ED Blade 1 Y force, node 23, N
         72   -8.220E-02                                 F               0         ED Blade 1 Z force, node 23, N
         73   -1.205E+00                                 F               0         ED Blade 1 X force, node 24, N
         74    7.099E-02                                 F               0         ED Blade 1 Y force, node 24, N
         75   -7.990E-02                                 F               0         ED Blade 1 Z force, node 24, N
         76   -1.228E+00                                 F               0         ED Blade 1 X force, node 25, N
         77    7.142E-02                                 F               0         ED Blade 1 Y force, node 25, N
         78   -7.842E-02                                 F               0         ED Blade 1 Z force, node 25, N
         79   -1.254E+00                                 F               0         ED Blade 1 X force, node 26, N
         80    7.233E-02                                 F               0         ED Blade 1 Y force, node 26, N
         81   -7.793E-02                                 F               0         ED Blade 1 Z force, node 26, N
         82   -1.491E+00                                 F               0         ED Blade 1 X force, node 27, N
         83    8.522E-02                                 F               0         ED Blade 1 Y force, node 27, N
         84   -9.013E-02                                 F               0         ED Blade 1 Z force, node 27, N
         85   -1.091E+00                                 F               0         ED Blade 1 X force, node 28, N
         86    6.222E-02                                 F               0         ED Blade 1 Y force, node 28, N
         87   -6.552E-02                                 F               0         ED Blade 1 Z force, node 28, N
         88   -1.317E+00                                 F               0         ED Blade 1 X force, node 29, N
         89    7.519E-02                                 F               0         ED Blade 1 Y force, node 29, N
         90   -7.934E-02                                 F               0         ED Blade 1 Z force, node 29, N
         91   -1.106E+00                                 F               0         ED Blade 1 X force, node 30, N
         92    6.322E-02                                 F               0         ED Blade 1 Y force, node 30, N
         93   -6.685E-02                                 F               0         ED Blade 1 Z force, node 30, N
         94   -1.570E+00                                 F               0         ED Blade 1 X force, node 31, N
         95    9.013E-02                                 F               0         ED Blade 1 Y force, node 31, N
         96   -9.624E-02                                 F               0         ED Blade 1 Z force, node 31, N
         97   -1.347E+00                                 F               0         ED Blade 1 X force, node 32, N
         98    7.820E-02                                 F               0         ED Blade 1 Y force, node 32, N
         99   -8.546E-02                                 F               0         ED Blade 1 Z force, node 32, N
        100   -1.350E+00                                 F               0         ED Blade 1 X force, node 33, N
        101    7.922E-02                                 F               0         ED Blade 1 Y force, node 33, N
        102   -8.850E-02                                 F               0         ED Blade 1 Z force, node 33, N
        103   -1.352E+00                                 F               0         ED Blade 1 X force, node 34, N
        104    8.026E-02                                 F               0         ED Blade 1 Y force, node 34, N
        105   -9.164E-02                                 F               0         ED Blade 1 Z force, node 34, N
        106   -1.352E+00                                 F               0         ED Blade 1 X force, node 35, N
        107    8.130E-02                                 F               0         ED Blade 1 Y force, node 35, N
        108   -9.513E-02                                 F               0         ED Blade 1 Z force, node 35, N
        109   -1.351E+00                                 F               0         ED Blade 1 X force, node 36, N
        110    8.232E-02                                 F               0         ED Blade 1 Y force, node 36, N
        111   -9.868E-02                                 F               0         ED Blade 1 Z force, node 36, N
        112   -1.577E+00                                 F               0         ED Blade 1 X force, node 37, N
        113    9.746E-02                                 F               0         ED Blade 1 Y force, node 37, N
        114   -1.198E-01                                 F               0         ED Blade 1 Z force, node 37, N
        115   -1.115E+00                                 F               0         ED Blade 1 X force, node 38, N
        116    7.031E-02                                 F               0         ED Blade 1 Y force, node 38, N
        117   -8.936E-02                                 F               0         ED Blade 1 Z force, node 38, N
        118   -1.331E+00                                 F               0         ED Blade 1 X force, node 39, N
        119    8.552E-02                                 F               0         ED Blade 1 Y force, node 39, N
        120   -1.120E-01                                 F               0         ED Blade 1 Z force, node 39, N
        121   -1.105E+00                                 F               0         ED Blade 1 X force, node 40, N
        122    7.239E-02                                 F               0         ED Blade 1 Y force, node 40, N
        123   -9.761E-02                                 F               0         ED Blade 1 Z force, node 40, N
        124   -1.522E+00                                 F               0         ED Blade 1 X force, node 41, N
        125    1.020E-01                                 F               0         ED Blade 1 Y force, node 41, N
        126   -1.420E-01                                 F               0         ED Blade 1 Z force, node 41, N
        127   -1.296E+00                                 F               0         ED Blade 1 X force, node 42, N
        128    8.884E-02                                 F               0         ED Blade 1 Y force, node 42, N
        129   -1.277E-01                                 F               0         ED Blade 1 Z force, node 42, N
        130   -1.284E+00                                 F               0         ED Blade 1 X force, node 43, N
        131    8.995E-02                                 F               0         ED Blade 1 Y force, node 43, N
        132   -1.329E-01                                 F               0         ED Blade 1 Z force, node 43, N
        133   -1.279E+00                                 F               0         ED Blade 1 X force, node 44, N
        134    9.153E-02                                 F               0         ED Blade 1 Y force, node 44, N
        135   -1.389E-01                                 F               0         ED Blade 1 Z force, node 44, N
        136   -1.253E+00                                 F               0         ED Blade 1 X force, node 45, N
        137    9.167E-02                                 F               0         ED Blade 1 Y force, node 45, N
        138   -1.427E-01                                 F               0         ED Blade 1 Z force, node 45, N
        139   -1.247E+00                                 F               0         ED Blade 1 X force, node 46, N
        140    9.325E-02                                 F               0         ED Blade 1 Y force, node 46, N
        141   -1.488E-01                                 F               0         ED Blade 1 Z force, node 46, N
        142   -1.448E+00                                 F               0         ED Blade 1 X force, node 47, N
        143    1.109E-01                                 F               0         ED Blade 1 Y force, node 47, N
        144   -1.815E-01                                 F               0         ED Blade 1 Z force, node 47, N
        145   -1.004E+00                                 F               0         ED Blade 1 X force, node 48, N
        146    7.900E-02                                 F               0         ED Blade 1 Y force, node 48, N
        147   -1.329E-01                                 F               0         ED Blade 1 Z force, node 48, N
        148   -1.199E+00                                 F               0         ED Blade 1 X force, node 49, N
        149    9.670E-02                                 F               0         ED Blade 1 Y force, node 49, N
        150   -1.666E-01                                 F               0         ED Blade 1 Z force, node 49, N
        151   -9.964E-01                                 F               0         ED Blade 1 X force, node 50, N
        152    8.236E-02                                 F               0         ED Blade 1 Y force, node 50, N
        153   -1.452E-01                                 F               0         ED Blade 1 Z force, node 50, N
        154   -1.352E+00                                 F               0         ED Blade 1 X force, node 51, N
        155    1.151E-01                                 F               0         ED Blade 1 Y force, node 51, N
        156   -2.080E-01                                 F               0         ED Blade 1 Z force, node 51, N
        157   -1.164E+00                                 F               0         ED Blade 1 X force, node 52, N
        158    1.019E-01                                 F               0         ED Blade 1 Y force, node 52, N
        159   -1.885E-01                                 F               0         ED Blade 1 Z force, node 52, N
        160   -1.161E+00                                 F               0         ED Blade 1 X force, node 53, N
        161    1.043E-01                                 F               0         ED Blade 1 Y force, node 53, N
        162   -1.969E-01                                 F               0         ED Blade 1 Z force, node 53, N
        163   -1.167E+00                                 F               0         ED Blade 1 X force, node 54, N
        164    1.077E-01                                 F               0         ED Blade 1 Y force, node 54, N
        165   -2.074E-01                                 F               0         ED Blade 1 Z force, node 54, N
        166   -1.123E+00                                 F               0         ED Blade 1 X force, node 55, N
        167    1.068E-01                                 F               0         ED Blade 1 Y force, node 55, N
        168   -2.101E-01                                 F               0         ED Blade 1 Z force, node 55, N
        169   -1.114E+00                                 F               0         ED Blade 1 X force, node 56, N
        170    1.092E-01                                 F               0         ED Blade 1 Y force, node 56, N
        171   -2.194E-01                                 F               0         ED Blade 1 Z force, node 56, N
        172   -1.286E+00                                 F               0         ED Blade 1 X force, node 57, N
        173    1.303E-01                                 F               0         ED Blade 1 Y force, node 57, N
        174   -2.676E-01                                 F               0         ED Blade 1 Z force, node 57, N
        175   -8.751E-01                                 F               0         ED Blade 1 X force, node 58, N
        176    9.169E-02                                 F               0         ED Blade 1 Y force, node 58, N
        177   -1.922E-01                                 F               0         ED Blade 1 Z force, node 58, N
        178   -1.047E+00                                 F               0         ED Blade 1 X force, node 59, N