
Linearized model: Predictions were generated on 06-Feb-2024 at 08:44:08 using OpenFAST, compiled as a 64-bit application using single precision at commit v3.5.1
 linked with  NWTC Subroutine Library; ElastoDyn; InflowWind; AeroDyn; ServoDyn; HydroDyn; MAP++ (<1.20.10>, <Oct-20-2023>)

Description from the FAST input file: CCT-9 Campign 4 model. Input files to be run with OpenFAST 3.5.0. GitHub branch from Lu Wang (https://github.com/luwang00/openfast/tree/dev) compiled on March 7, 2023.

Simulation information:
   Simulation time:                  2501.0000 s
   Rotor Speed:                         0.8859 rad/s
   Azimuth:                             4.0365 rad
   Wind Speed:                         10.0000 m/s
   Number of continuous states:        22
   Number of discrete states:           0
   Number of constraint states:         0
   Number of inputs:                 3988
   Number of outputs:                  36
   Jacobians included in this file?    No

Order of continuous states:
   Row/Column Operating Point                     Rotating Frame? Derivative Order Description
   ---------- ---------------                     --------------- ---------------- -----------
          1    1.247E+01                                 F               2         ED Platform horizontal surge translation DOF (internal DOF index = DOF_Sg), m
          2    2.480E-02                                 F               2         ED Platform horizontal sway translation DOF (internal DOF index = DOF_Sw), m
          3   -1.307E-01                                 F               2         ED Platform vertical heave translation DOF (internal DOF index = DOF_Hv), m
          4   -1.391E-03                                 F               2         ED Platform roll tilt rotation DOF (internal DOF index = DOF_R), rad
          5    7.853E-02                                 F               2         ED Platform pitch tilt rotation DOF (internal DOF index = DOF_P), rad
          6    1.178E-03                                 F               2         ED Platform yaw rotation DOF (internal DOF index = DOF_Y), rad
          7    6.071E-01                                 F               2         ED 1st tower fore-aft bending mode DOF (internal DOF index = DOF_TFA1), m
          8   -1.011E-02                                 F               2         ED 1st tower side-to-side bending mode DOF (internal DOF index = DOF_TSS1), m
          9    1.438E-03                                 F               2         ED 2nd tower fore-aft bending mode DOF (internal DOF index = DOF_TFA2), m
         10   -2.332E-06                                 F               2         ED 2nd tower side-to-side bending mode DOF (internal DOF index = DOF_TSS2), m
         11    2.466E+00                                 F               2         ED Variable speed generator DOF (internal DOF index = DOF_GeAz), rad
         12    1.798E-06                                 F               2         ED First time derivative of Platform horizontal surge translation DOF (internal DOF index = DOF_Sg), m/s
         13   -3.947E-04                                 F               2         ED First time derivative of Platform horizontal sway translation DOF (internal DOF index = DOF_Sw), m/s
         14    2.210E-03                                 F               2         ED First time derivative of Platform vertical heave translation DOF (internal DOF index = DOF_Hv), m/s
         15   -4.798E-04                                 F               2         ED First time derivative of Platform roll tilt rotation DOF (internal DOF index = DOF_R), rad/s
         16   -7.335E-06                                 F               2         ED First time derivative of Platform pitch tilt rotation DOF (internal DOF index = DOF_P), rad/s
         17    1.597E-04                                 F               2         ED First time derivative of Platform yaw rotation DOF (internal DOF index = DOF_Y), rad/s
         18    2.064E-03                                 F               2         ED First time derivative of 1st tower fore-aft bending mode DOF (internal DOF index = DOF_TFA1), m/s
         19   -5.025E-03                                 F               2         ED First time derivative of 1st tower side-to-side bending mode DOF (internal DOF index = DOF_TSS1), m/s
         20    9.568E-07                                 F               2         ED First time derivative of 2nd tower fore-aft bending mode DOF (internal DOF index = DOF_TFA2), m/s
         21    1.388E-08                                 F               2         ED First time derivative of 2nd tower side-to-side bending mode DOF (internal DOF index = DOF_TSS2), m/s
         22    8.859E-01                                 F               2         ED First time derivative of Variable speed generator DOF (internal DOF index = DOF_GeAz), rad/s

Order of continuous state derivatives:
   Row/Column Operating Point                     Rotating Frame? Derivative Order Description
   ---------- ---------------                     --------------- ---------------- -----------
          1    1.798E-06                                 F               2         First time derivative of ED Platform horizontal surge translation DOF (internal DOF index = DOF_Sg), m/s
          2   -3.947E-04                                 F               2         First time derivative of ED Platform horizontal sway translation DOF (internal DOF index = DOF_Sw), m/s
          3    2.210E-03                                 F               2         First time derivative of ED Platform vertical heave translation DOF (internal DOF index = DOF_Hv), m/s
          4   -4.798E-04                                 F               2         First time derivative of ED Platform roll tilt rotation DOF (internal DOF index = DOF_R), rad/s
          5   -7.335E-06                                 F               2         First time derivative of ED Platform pitch tilt rotation DOF (internal DOF index = DOF_P), rad/s
          6    1.597E-04                                 F               2         First time derivative of ED Platform yaw rotation DOF (internal DOF index = DOF_Y), rad/s
          7    2.064E-03                                 F               2         First time derivative of ED 1st tower fore-aft bending mode DOF (internal DOF index = DOF_TFA1), m/s
          8   -5.025E-03                                 F               2         First time derivative of ED 1st tower side-to-side bending mode DOF (internal DOF index = DOF_TSS1), m/s
          9    9.568E-07                                 F               2         First time derivative of ED 2nd tower fore-aft bending mode DOF (internal DOF index = DOF_TFA2), m/s
         10    1.388E-08                                 F               2         First time derivative of ED 2nd tower side-to-side bending mode DOF (internal DOF index = DOF_TSS2), m/s
         11    8.859E-01                                 F               2         First time derivative of ED Variable speed generator DOF (internal DOF index = DOF_GeAz), rad/s
         12   -1.724E-04                                 F               2         First time derivative of ED First time derivative of Platform horizontal surge translation DOF (internal DOF index = DOF_Sg), m/s/s
         13    1.856E-04                                 F               2         First time derivative of ED First time derivative of Platform horizontal sway translation DOF (internal DOF index = DOF_Sw), m/s/s
         14   -5.141E-04                                 F               2         First time derivative of ED First time derivative of Platform vertical heave translation DOF (internal DOF index = DOF_Hv), m/s/s
         15    2.992E-05                                 F               2         First time derivative of ED First time derivative of Platform roll tilt rotation DOF (internal DOF index = DOF_R), rad/s/s
         16   -8.978E-06                                 F               2         First time derivative of ED First time derivative of Platform pitch tilt rotation DOF (internal DOF index = DOF_P), rad/s/s
         17   -4.058E-05                                 F               2         First time derivative of ED First time derivative of Platform yaw rotation DOF (internal DOF index = DOF_Y), rad/s/s
         18    1.409E-03                                 F               2         First time derivative of ED First time derivative of 1st tower fore-aft bending mode DOF (internal DOF index = DOF_TFA1), m/s/s
         19    4.050E-03                                 F               2         First time derivative of ED First time derivative of 1st tower side-to-side bending mode DOF (internal DOF index = DOF_TSS1), m/s/s
         20   -5.035E-07                                 F               2         First time derivative of ED First time derivative of 2nd tower fore-aft bending mode DOF (internal DOF index = DOF_TFA2), m/s/s
         21   -1.548E-06                                 F               2         First time derivative of ED First time derivative of 2nd tower side-to-side bending mode DOF (internal DOF index = DOF_TSS2), m/s/s
         22   -6.873E-05                                 F               2         First time derivative of ED First time derivative of Variable speed generator DOF (internal DOF index = DOF_GeAz), rad/s/s

Order of inputs:
     Column   Operating Point                     Rotating Frame? Derivative Order Description
   ---------- ---------------                     --------------- ---------------- -----------
          1   -1.080E+01                                 F               0         IfW X-component position of node 1 (hub), m
          2    0.000E+00                                 F               0         IfW Y-component position of node 1 (hub), m
          3    1.497E+02                                 F               0         IfW Z-component position of node 1 (hub), m
          4    1.343E+01                                 F               0         IfW X-component position of node 2 (blade 1, node 1), m
          5    4.555E+00                                 F               0         IfW Y-component position of node 2 (blade 1, node 1), m
          6    1.466E+02                                 F               0         IfW Z-component position of node 2 (blade 1, node 1), m
          7    1.327E+01                                 F               0         IfW X-component position of node 3 (blade 1, node 2), m
          8    5.595E+00                                 F               0         IfW Y-component position of node 3 (blade 1, node 2), m
          9    1.458E+02                                 F               0         IfW Z-component position of node 3 (blade 1, node 2), m
         10    1.111E+01                                 F               0         IfW X-component position of node 4 (blade 1, node 3), m
         11    1.974E+01                                 F               0         IfW Y-component position of node 4 (blade 1, node 3), m
         12    1.346E+02                                 F               0         IfW Z-component position of node 4 (blade 1, node 3), m
         13    1.065E+01                                 F               0         IfW X-component position of node 5 (blade 1, node 4), m
         14    2.275E+01                                 F               0         IfW Y-component position of node 5 (blade 1, node 4), m
         15    1.322E+02                                 F               0         IfW Z-component position of node 5 (blade 1, node 4), m
         16    1.019E+01                                 F               0         IfW X-component position of node 6 (blade 1, node 5), m
         17    2.576E+01                                 F               0         IfW Y-component position of node 6 (blade 1, node 5), m
         18    1.299E+02                                 F               0         IfW Z-component position of node 6 (blade 1, node 5), m
         19    9.727E+00                                 F               0         IfW X-component position of node 7 (blade 1, node 6), m
         20    2.878E+01                                 F               0         IfW Y-component position of node 7 (blade 1, node 6), m
         21    1.275E+02                                 F               0         IfW Z-component position of node 7 (blade 1, node 6), m
         22    9.266E+00                                 F               0         IfW X-component position of node 8 (blade 1, node 7), m
         23    3.179E+01                                 F               0         IfW Y-component position of node 8 (blade 1, node 7), m
         24    1.251E+02                                 F               0         IfW Z-component position of node 8 (blade 1, node 7), m
         25    8.805E+00                                 F               0         IfW X-component position of node 9 (blade 1, node 8), m
         26    3.480E+01                                 F               0         IfW Y-component position of node 9 (blade 1, node 8), m
         27    1.227E+02                                 F               0         IfW Z-component position of node 9 (blade 1, node 8), m
         28    8.344E+00                                 F               0         IfW X-component position of node 10 (blade 1, node 9), m
         29    3.782E+01                                 F               0         IfW Y-component position of node 10 (blade 1, node 9), m
         30    1.203E+02                                 F               0         IfW Z-component position of node 10 (blade 1, node 9), m
         31    7.883E+00                                 F               0         IfW X-component position of node 11 (blade 1, node 10), m
         32    4.083E+01                                 F               0         IfW Y-component position of node 11 (blade 1, node 10), m
         33    1.180E+02                                 F               0         IfW Z-component position of node 11 (blade 1, node 10), m
         34    7.422E+00                                 F               0         IfW X-component position of node 12 (blade 1, node 11), m
         35    4.384E+01                                 F               0         IfW Y-component position of node 12 (blade 1, node 11), m
         36    1.156E+02                                 F               0         IfW Z-component position of node 12 (blade 1, node 11), m
         37    6.961E+00                                 F               0         IfW X-component position of node 13 (blade 1, node 12), m
         38    4.686E+01                                 F               0         IfW Y-component position of node 13 (blade 1, node 12), m
         39    1.132E+02                                 F               0         IfW Z-component position of node 13 (blade 1, node 12), m
         40    6.500E+00                                 F               0         IfW X-component position of node 14 (blade 1, node 13), m
         41    4.987E+01                                 F               0         IfW Y-component position of node 14 (blade 1, node 13), m
         42    1.108E+02                                 F               0         IfW Z-component position of node 14 (blade 1, node 13), m
         43    6.039E+00                                 F               0         IfW X-component position of node 15 (blade 1, node 14), m
         44    5.288E+01                                 F               0         IfW Y-component position of node 15 (blade 1, node 14), m
         45    1.084E+02                                 F               0         IfW Z-component position of node 15 (blade 1, node 14), m
         46    5.578E+00                                 F               0         IfW X-component position of node 16 (blade 1, node 15), m
         47    5.590E+01                                 F               0         IfW Y-component position of node 16 (blade 1, node 15), m
         48    1.060E+02                                 F               0         IfW Z-component position of node 16 (blade 1, node 15), m
         49    5.117E+00                                 F               0         IfW X-component position of node 17 (blade 1, node 16), m
         50    5.891E+01                                 F               0         IfW Y-component position of node 17 (blade 1, node 16), m
         51    1.037E+02                                 F               0         IfW Z-component position of node 17 (blade 1, node 16), m
         52    4.656E+00                                 F               0         IfW X-component position of node 18 (blade 1, node 17), m
         53    6.192E+01                                 F               0         IfW Y-component position of node 18 (blade 1, node 17), m
         54    1.013E+02                                 F               0         IfW Z-component position of node 18 (blade 1, node 17), m
         55    4.195E+00                                 F               0         IfW X-component position of node 19 (blade 1, node 18), m
         56    6.494E+01                                 F               0         IfW Y-component position of node 19 (blade 1, node 18), m
         57    9.891E+01                                 F               0         IfW Z-component position of node 19 (blade 1, node 18), m
         58    3.734E+00                                 F               0         IfW X-component position of node 20 (blade 1, node 19), m
         59    6.795E+01                                 F               0         IfW Y-component position of node 20 (blade 1, node 19), m
         60    9.653E+01                                 F               0         IfW Z-component position of node 20 (blade 1, node 19), m
         61    3.273E+00                                 F               0         IfW X-component position of node 21 (blade 1, node 20), m
         62    7.096E+01                                 F               0         IfW Y-component position of node 21 (blade 1, node 20), m
         63    9.415E+01                                 F               0         IfW Z-component position of node 21 (blade 1, node 20), m
         64    2.812E+00                                 F               0         IfW X-component position of node 22 (blade 1, node 21), m
         65    7.398E+01                                 F               0         IfW Y-component position of node 22 (blade 1, node 21), m
         66    9.177E+01                                 F               0         IfW Z-component position of node 22 (blade 1, node 21), m
         67    2.351E+00                                 F               0         IfW X-component position of node 23 (blade 1, node 22), m
         68    7.699E+01                                 F               0         IfW Y-component position of node 23 (blade 1, node 22), m
         69    8.938E+01                                 F               0         IfW Z-component position of node 23 (blade 1, node 22), m
         70    1.890E+00                                 F               0         IfW X-component position of node 24 (blade 1, node 23), m
         71    8.000E+01                                 F               0         IfW Y-component position of node 24 (blade 1, node 23), m
         72    8.700E+01                                 F               0         IfW Z-component position of node 24 (blade 1, node 23), m
         73    1.429E+00                                 F               0         IfW X-component position of node 25 (blade 1, node 24), m
         74    8.302E+01                                 F               0         IfW Y-component position of node 25 (blade 1, node 24), m
         75    8.462E+01                                 F               0         IfW Z-component position of node 25 (blade 1, node 24), m
         76    9.680E-01                                 F               0         IfW X-component position of node 26 (blade 1, node 25), m
         77    8.603E+01                                 F               0         IfW Y-component position of node 26 (blade 1, node 25), m
         78    8.224E+01                                 F               0         IfW Z-component position of node 26 (blade 1, node 25), m
         79    5.069E-01                                 F               0         IfW X-component position of node 27 (blade 1, node 26), m
         80    8.904E+01                                 F               0         IfW Y-component position of node 27 (blade 1, node 26), m
         81    7.986E+01                                 F               0         IfW Z-component position of node 27 (blade 1, node 26), m
         82    4.589E-02                                 F               0         IfW X-component position of node 28 (blade 1, node 27), m
         83    9.206E+01                                 F               0         IfW Y-component position of node 28 (blade 1, node 27), m
         84    7.748E+01                                 F               0         IfW Z-component position of node 28 (blade 1, node 27), m
         85   -3.449E-01                                 F               0         IfW X-component position of node 29 (blade 1, node 28), m
         86    9.461E+01                                 F               0         IfW Y-component position of node 29 (blade 1, node 28), m
         87    7.546E+01                                 F               0         IfW Z-component position of node 29 (blade 1, node 28), m
         88    1.513E+01                                 F               0         IfW X-component position of node 30 (blade 2, node 1), m
         89    1.089E+00                                 F               0         IfW Y-component position of node 30 (blade 2, node 1), m
         90    1.554E+02                                 F               0         IfW Z-component position of node 30 (blade 2, node 1), m
         91    1.538E+01                                 F               0         IfW X-component position of node 31 (blade 2, node 2), m
         92    1.294E+00                                 F               0         IfW Y-component position of node 31 (blade 2, node 2), m
         93    1.567E+02                                 F               0         IfW Z-component position of node 31 (blade 2, node 2), m
         94    1.876E+01                                 F               0         IfW X-component position of node 32 (blade 2, node 3), m
         95    4.078E+00                                 F               0         IfW Y-component position of node 32 (blade 2, node 3), m
         96    1.743E+02                                 F               0         IfW Z-component position of node 32 (blade 2, node 3), m
         97    1.949E+01                                 F               0         IfW X-component position of node 33 (blade 2, node 4), m
         98    4.671E+00                                 F               0         IfW Y-component position of node 33 (blade 2, node 4), m
         99    1.781E+02                                 F               0         IfW Z-component position of node 33 (blade 2, node 4), m
        100    2.021E+01                                 F               0         IfW X-component position of node 34 (blade 2, node 5), m
        101    5.264E+00                                 F               0         IfW Y-component position of node 34 (blade 2, node 5), m
        102    1.818E+02                                 F               0         IfW Z-component position of node 34 (blade 2, node 5), m
        103    2.093E+01                                 F               0         IfW X-component position of node 35 (blade 2, node 6), m
        104    5.857E+00                                 F               0         IfW Y-component position of node 35 (blade 2, node 6), m
        105    1.856E+02                                 F               0         IfW Z-component position of node 35 (blade 2, node 6), m
        106    2.165E+01                                 F               0         IfW X-component position of node 36 (blade 2, node 7), m
        107    6.450E+00                                 F               0         IfW Y-component position of node 36 (blade 2, node 7), m
        108    1.893E+02                                 F               0         IfW Z-component position of node 36 (blade 2, node 7), m
        109    2.237E+01                                 F               0         IfW X-component position of node 37 (blade 2, node 8), m
        110    7.044E+00                                 F               0         IfW Y-component position of node 37 (blade 2, node 8), m
        111    1.931E+02                                 F               0         IfW Z-component position of node 37 (blade 2, node 8), m
        112    2.309E+01                                 F               0         IfW X-component position of node 38 (blade 2, node 9), m
        113    7.637E+00                                 F               0         IfW Y-component position of node 38 (blade 2, node 9), m
        114    1.968E+02                                 F               0         IfW Z-component position of node 38 (blade 2, node 9), m
        115    2.382E+01                                 F               0         IfW X-component position of node 39 (blade 2, node 10), m
        116    8.230E+00                                 F               0         IfW Y-component position of node 39 (blade 2, node 10), m
        117    2.006E+02                                 F               0         IfW Z-component position of node 39 (blade 2, node 10), m
        118    2.454E+01                                 F               0         IfW X-component position of node 40 (blade 2, node 11), m
        119    8.823E+00                                 F               0         IfW Y-component position of node 40 (blade 2, node 11), m
        120    2.043E+02                                 F               0         IfW Z-component position of node 40 (blade 2, node 11), m
        121    2.526E+01                                 F               0         IfW X-component position of node 41 (blade 2, node 12), m
        122    9.416E+00                                 F               0         IfW Y-component position of node 41 (blade 2, node 12), m
        123    2.081E+02                                 F               0         IfW Z-component position of node 41 (blade 2, node 12), m
        124    2.598E+01                                 F               0         IfW X-component position of node 42 (blade 2, node 13), m
        125    1.001E+01                                 F               0         IfW Y-component position of node 42 (blade 2, node 13), m
        126    2.118E+02                                 F               0         IfW Z-component position of node 42 (blade 2, node 13), m
        127    2.670E+01                                 F               0         IfW X-component position of node 43 (blade 2, node 14), m
        128    1.060E+01                                 F               0         IfW Y-component position of node 43 (blade 2, node 14), m
        129    2.156E+02                                 F               0         IfW Z-component position of node 43 (blade 2, node 14), m
        130    2.743E+01                                 F               0         IfW X-component position of node 44 (blade 2, node 15), m
        131    1.120E+01                                 F               0         IfW Y-component position of node 44 (blade 2, node 15), m
        132    2.193E+02                                 F               0         IfW Z-component position of node 44 (blade 2, node 15), m
        133    2.815E+01                                 F               0         IfW X-component position of node 45 (blade 2, node 16), m
        134    1.179E+01                                 F               0         IfW Y-component position of node 45 (blade 2, node 16), m
        135    2.231E+02                                 F               0         IfW Z-component position of node 45 (blade 2, node 16), m
        136    2.887E+01                                 F               0         IfW X-component position of node 46 (blade 2, node 17), m
        137    1.238E+01                                 F               0         IfW Y-component position of node 46 (blade 2, node 17), m
        138    2.268E+02                                 F               0         IfW Z-component position of node 46 (blade 2, node 17), m
        139    2.959E+01                                 F               0         IfW X-component position of node 47 (blade 2, node 18), m
        140    1.298E+01                                 F               0         IfW Y-component position of node 47 (blade 2, node 18), m
        141    2.306E+02                                 F               0         IfW Z-component position of node 47 (blade 2, node 18), m
        142    3.031E+01                                 F               0         IfW X-component position of node 48 (blade 2, node 19), m
        143    1.357E+01                                 F               0         IfW Y-component position of node 48 (blade 2, node 19), m
        144    2.344E+02                                 F               0         IfW Z-component position of node 48 (blade 2, node 19), m