
Linearized model: Predictions were generated on 06-Feb-2024 at 08:44:08 using OpenFAST, compiled as a 64-bit application using single precision at commit v3.5.1
 linked with  NWTC Subroutine Library; ElastoDyn; InflowWind; AeroDyn; ServoDyn; HydroDyn; MAP++ (<1.20.10>, <Oct-20-2023>)

Description from the FAST input file: CCT-9 Campign 4 model. Input files to be run with OpenFAST 3.5.0. GitHub branch from Lu Wang (https://github.com/luwang00/openfast/tree/dev) compiled on March 7, 2023.

Simulation information:
   Simulation time:                  2502.0000 s
   Rotor Speed:                         0.8858 rad/s
   Azimuth:                             4.9223 rad
   Wind Speed:                         10.0000 m/s
   Number of continuous states:        22
   Number of discrete states:           0
   Number of constraint states:         0
   Number of inputs:                 1890
   Number of outputs:                  19
   Jacobians included in this file?    No

Order of continuous states:
   Row/Column Operating Point                     Rotating Frame? Derivative Order Description
   ---------- ---------------                     --------------- ---------------- -----------
          1    1.247E+01                                 F               2         Platform horizontal surge translation DOF (internal DOF index = DOF_Sg), m
          2    2.455E-02                                 F               2         Platform horizontal sway translation DOF (internal DOF index = DOF_Sw), m
          3   -1.288E-01                                 F               2         Platform vertical heave translation DOF (internal DOF index = DOF_Hv), m
          4   -1.856E-03                                 F               2         Platform roll tilt rotation DOF (internal DOF index = DOF_R), rad
          5    7.852E-02                                 F               2         Platform pitch tilt rotation DOF (internal DOF index = DOF_P), rad
          6    1.316E-03                                 F               2         Platform yaw rotation DOF (internal DOF index = DOF_Y), rad
          7    6.079E-01                                 F               2         1st tower fore-aft bending mode DOF (internal DOF index = DOF_TFA1), m
          8   -1.319E-02                                 F               2         1st tower side-to-side bending mode DOF (internal DOF index = DOF_TSS1), m
          9    1.438E-03                                 F               2         2nd tower fore-aft bending mode DOF (internal DOF index = DOF_TFA2), m
         10   -2.359E-06                                 F               2         2nd tower side-to-side bending mode DOF (internal DOF index = DOF_TSS2), m
         11    3.352E+00                                 F               2         Variable speed generator DOF (internal DOF index = DOF_GeAz), rad
         12    1.652E-04                                 F               2         First time derivative of Platform horizontal surge translation DOF (internal DOF index = DOF_Sg), m/s
         13   -1.144E-04                                 F               2         First time derivative of Platform horizontal sway translation DOF (internal DOF index = DOF_Sw), m/s
         14    1.587E-03                                 F               2         First time derivative of Platform vertical heave translation DOF (internal DOF index = DOF_Hv), m/s
         15   -4.462E-04                                 F               2         First time derivative of Platform roll tilt rotation DOF (internal DOF index = DOF_R), rad/s
         16    3.063E-06                                 F               2         First time derivative of Platform pitch tilt rotation DOF (internal DOF index = DOF_P), rad/s
         17    1.148E-04                                 F               2         First time derivative of Platform yaw rotation DOF (internal DOF index = DOF_Y), rad/s
         18   -1.374E-03                                 F               2         First time derivative of 1st tower fore-aft bending mode DOF (internal DOF index = DOF_TFA1), m/s
         19   -2.223E-03                                 F               2         First time derivative of 1st tower side-to-side bending mode DOF (internal DOF index = DOF_TSS1), m/s
         20   -2.556E-06                                 F               2         First time derivative of 2nd tower fore-aft bending mode DOF (internal DOF index = DOF_TFA2), m/s
         21   -1.144E-07                                 F               2         First time derivative of 2nd tower side-to-side bending mode DOF (internal DOF index = DOF_TSS2), m/s
         22    8.858E-01                                 F               2         First time derivative of Variable speed generator DOF (internal DOF index = DOF_GeAz), rad/s

Order of continuous state derivatives:
   Row/Column Operating Point                     Rotating Frame? Derivative Order Description
   ---------- ---------------                     --------------- ---------------- -----------
          1    1.652E-04                                 F               2         First time derivative of Platform horizontal surge translation DOF (internal DOF index = DOF_Sg), m/s
          2   -1.144E-04                                 F               2         First time derivative of Platform horizontal sway translation DOF (internal DOF index = DOF_Sw), m/s
          3    1.587E-03                                 F               2         First time derivative of Platform vertical heave translation DOF (internal DOF index = DOF_Hv), m/s
          4   -4.462E-04                                 F               2         First time derivative of Platform roll tilt rotation DOF (internal DOF index = DOF_R), rad/s
          5    3.063E-06                                 F               2         First time derivative of Platform pitch tilt rotation DOF (internal DOF index = DOF_P), rad/s
          6    1.148E-04                                 F               2         First time derivative of Platform yaw rotation DOF (internal DOF index = DOF_Y), rad/s
          7   -1.374E-03                                 F               2         First time derivative of 1st tower fore-aft bending mode DOF (internal DOF index = DOF_TFA1), m/s
          8   -2.223E-03                                 F               2         First time derivative of 1st tower side-to-side bending mode DOF (internal DOF index = DOF_TSS1), m/s
          9   -2.556E-06                                 F               2         First time derivative of 2nd tower fore-aft bending mode DOF (internal DOF index = DOF_TFA2), m/s
         10   -1.144E-07                                 F               2         First time derivative of 2nd tower side-to-side bending mode DOF (internal DOF index = DOF_TSS2), m/s
         11    8.858E-01                                 F               2         First time derivative of Variable speed generator DOF (internal DOF index = DOF_GeAz), rad/s
         12    1.830E-04                                 F               2         First time derivative of First time derivative of Platform horizontal surge translation DOF (internal DOF index = DOF_Sg), m/s/s
         13    1.525E-04                                 F               2         First time derivative of First time derivative of Platform horizontal sway translation DOF (internal DOF index = DOF_Sw), m/s/s
         14   -6.843E-04                                 F               2         First time derivative of First time derivative of Platform vertical heave translation DOF (internal DOF index = DOF_Hv), m/s/s
         15    5.014E-05                                 F               2         First time derivative of First time derivative of Platform roll tilt rotation DOF (internal DOF index = DOF_R), rad/s/s
         16    1.153E-05                                 F               2         First time derivative of First time derivative of Platform pitch tilt rotation DOF (internal DOF index = DOF_P), rad/s/s
         17   -5.088E-05                                 F               2         First time derivative of First time derivative of Platform yaw rotation DOF (internal DOF index = DOF_Y), rad/s/s
         18   -3.351E-03                                 F               2         First time derivative of First time derivative of 1st tower fore-aft bending mode DOF (internal DOF index = DOF_TFA1), m/s/s
         19   -1.625E-03                                 F               2         First time derivative of First time derivative of 1st tower side-to-side bending mode DOF (internal DOF index = DOF_TSS1), m/s/s
         20   -9.844E-06                                 F               2         First time derivative of First time derivative of 2nd tower fore-aft bending mode DOF (internal DOF index = DOF_TFA2), m/s/s
         21   -5.000E-07                                 F               2         First time derivative of First time derivative of 2nd tower side-to-side bending mode DOF (internal DOF index = DOF_TSS2), m/s/s
         22   -1.543E-04                                 F               2         First time derivative of First time derivative of Variable speed generator DOF (internal DOF index = DOF_GeAz), rad/s/s

Order of inputs:
     Column   Operating Point                     Rotating Frame? Derivative Order Description
   ---------- ---------------                     --------------- ---------------- -----------
          1    5.980E+01                                 F               0         Blade 1 X force, node 1, N
          2    8.857E+00                                 F               0         Blade 1 Y force, node 1, N
          3   -5.396E+01                                 F               0         Blade 1 Z force, node 1, N
          4    2.822E+02                                 F               0         Blade 1 X force, node 2, N
          5    1.843E+01                                 F               0         Blade 1 Y force, node 2, N
          6   -1.419E+02                                 F               0         Blade 1 Z force, node 2, N
          7    4.023E+02                                 F               0         Blade 1 X force, node 3, N
          8    6.506E+00                                 F               0         Blade 1 Y force, node 3, N
          9   -1.068E+02                                 F               0         Blade 1 Z force, node 3, N
         10    5.525E+02                                 F               0         Blade 1 X force, node 4, N
         11   -3.391E+00                                 F               0         Blade 1 Y force, node 4, N
         12   -8.725E+01                                 F               0         Blade 1 Z force, node 4, N
         13    7.027E+02                                 F               0         Blade 1 X force, node 5, N
         14   -1.329E+01                                 F               0         Blade 1 Y force, node 5, N
         15   -6.766E+01                                 F               0         Blade 1 Z force, node 5, N
         16    8.530E+02                                 F               0         Blade 1 X force, node 6, N
         17   -2.318E+01                                 F               0         Blade 1 Y force, node 6, N
         18   -4.807E+01                                 F               0         Blade 1 Z force, node 6, N
         19    1.003E+03                                 F               0         Blade 1 X force, node 7, N
         20   -3.308E+01                                 F               0         Blade 1 Y force, node 7, N
         21   -2.848E+01                                 F               0         Blade 1 Z force, node 7, N
         22    1.153E+03                                 F               0         Blade 1 X force, node 8, N
         23   -4.298E+01                                 F               0         Blade 1 Y force, node 8, N
         24   -8.891E+00                                 F               0         Blade 1 Z force, node 8, N
         25    1.304E+03                                 F               0         Blade 1 X force, node 9, N
         26   -5.287E+01                                 F               0         Blade 1 Y force, node 9, N
         27    1.070E+01                                 F               0         Blade 1 Z force, node 9, N
         28    1.454E+03                                 F               0         Blade 1 X force, node 10, N
         29   -6.277E+01                                 F               0         Blade 1 Y force, node 10, N
         30    3.029E+01                                 F               0         Blade 1 Z force, node 10, N
         31    1.604E+03                                 F               0         Blade 1 X force, node 11, N
         32   -7.266E+01                                 F               0         Blade 1 Y force, node 11, N
         33    4.988E+01                                 F               0         Blade 1 Z force, node 11, N
         34    1.754E+03                                 F               0         Blade 1 X force, node 12, N
         35   -8.256E+01                                 F               0         Blade 1 Y force, node 12, N
         36    6.947E+01                                 F               0         Blade 1 Z force, node 12, N
         37    1.905E+03                                 F               0         Blade 1 X force, node 13, N
         38   -9.246E+01                                 F               0         Blade 1 Y force, node 13, N
         39    8.906E+01                                 F               0         Blade 1 Z force, node 13, N
         40    2.055E+03                                 F               0         Blade 1 X force, node 14, N
         41   -1.024E+02                                 F               0         Blade 1 Y force, node 14, N
         42    1.086E+02                                 F               0         Blade 1 Z force, node 14, N
         43    2.205E+03                                 F               0         Blade 1 X force, node 15, N
         44   -1.123E+02                                 F               0         Blade 1 Y force, node 15, N
         45    1.282E+02                                 F               0         Blade 1 Z force, node 15, N
         46    2.355E+03                                 F               0         Blade 1 X force, node 16, N
         47   -1.221E+02                                 F               0         Blade 1 Y force, node 16, N
         48    1.478E+02                                 F               0         Blade 1 Z force, node 16, N
         49    2.905E+03                                 F               0         Blade 1 X force, node 17, N
         50   -1.525E+02                                 F               0         Blade 1 Y force, node 17, N
         51    1.910E+02                                 F               0         Blade 1 Z force, node 17, N
         52    2.219E+03                                 F               0         Blade 1 X force, node 18, N
         53   -1.122E+02                                 F               0         Blade 1 Y force, node 18, N
         54    1.253E+02                                 F               0         Blade 1 Z force, node 18, N
         55    2.722E+03                                 F               0         Blade 1 X force, node 19, N
         56   -1.307E+02                                 F               0         Blade 1 Y force, node 19, N
         57    1.205E+02                                 F               0         Blade 1 Z force, node 19, N
         58    2.319E+03                                 F               0         Blade 1 X force, node 20, N
         59   -1.060E+02                                 F               0         Blade 1 Y force, node 20, N
         60    7.652E+01                                 F               0         Blade 1 Z force, node 20, N
         61    3.424E+03                                 F               0         Blade 1 X force, node 21, N
         62   -1.476E+02                                 F               0         Blade 1 Y force, node 21, N
         63    7.010E+01                                 F               0         Blade 1 Z force, node 21, N
         64    3.021E+03                                 F               0         Blade 1 X force, node 22, N
         65   -1.228E+02                                 F               0         Blade 1 Y force, node 22, N
         66    2.611E+01                                 F               0         Blade 1 Z force, node 22, N
         67    3.102E+03                                 F               0         Blade 1 X force, node 23, N
         68   -1.194E+02                                 F               0         Blade 1 Y force, node 23, N
         69   -5.217E+00                                 F               0         Blade 1 Z force, node 23, N
         70    3.238E+03                                 F               0         Blade 1 X force, node 24, N
         71   -1.182E+02                                 F               0         Blade 1 Y force, node 24, N
         72   -3.698E+01                                 F               0         Blade 1 Z force, node 24, N
         73    3.318E+03                                 F               0         Blade 1 X force, node 25, N
         74   -1.148E+02                                 F               0         Blade 1 Y force, node 25, N
         75   -6.819E+01                                 F               0         Blade 1 Z force, node 25, N
         76    3.416E+03                                 F               0         Blade 1 X force, node 26, N
         77   -1.121E+02                                 F               0         Blade 1 Y force, node 26, N
         78   -9.954E+01                                 F               0         Blade 1 Z force, node 26, N
         79    4.093E+03                                 F               0         Blade 1 X force, node 27, N
         80   -1.270E+02                                 F               0         Blade 1 Y force, node 27, N
         81   -1.544E+02                                 F               0         Blade 1 Z force, node 27, N
         82    3.034E+03                                 F               0         Blade 1 X force, node 28, N
         83   -8.917E+01                                 F               0         Blade 1 Y force, node 28, N
         84   -1.386E+02                                 F               0         Blade 1 Z force, node 28, N
         85    3.711E+03                                 F               0         Blade 1 X force, node 29, N
         86   -1.041E+02                                 F               0         Blade 1 Y force, node 29, N
         87   -1.934E+02                                 F               0         Blade 1 Z force, node 29, N
         88    3.157E+03                                 F               0         Blade 1 X force, node 30, N
         89   -8.460E+01                                 F               0         Blade 1 Y force, node 30, N
         90   -1.837E+02                                 F               0         Blade 1 Z force, node 30, N
         91    4.560E+03                                 F               0         Blade 1 X force, node 31, N
         92   -1.158E+02                                 F               0         Blade 1 Y force, node 31, N
         93   -2.966E+02                                 F               0         Blade 1 Z force, node 31, N
         94    4.006E+03                                 F               0         Blade 1 X force, node 32, N
         95   -9.622E+01                                 F               0         Blade 1 Y force, node 32, N
         96   -2.868E+02                                 F               0         Blade 1 Z force, node 32, N
         97    4.103E+03                                 F               0         Blade 1 X force, node 33, N
         98   -9.358E+01                                 F               0         Blade 1 Y force, node 33, N
         99   -3.179E+02                                 F               0         Blade 1 Z force, node 33, N
        100    4.202E+03                                 F               0         Blade 1 X force, node 34, N
        101   -9.096E+01                                 F               0         Blade 1 Y force, node 34, N
        102   -3.490E+02                                 F               0         Blade 1 Z force, node 34, N
        103    4.300E+03                                 F               0         Blade 1 X force, node 35, N
        104   -8.836E+01                                 F               0         Blade 1 Y force, node 35, N
        105   -3.800E+02                                 F               0         Blade 1 Z force, node 35, N
        106    4.398E+03                                 F               0         Blade 1 X force, node 36, N
        107   -8.575E+01                                 F               0         Blade 1 Y force, node 36, N
        108   -4.109E+02                                 F               0         Blade 1 Z force, node 36, N
        109    5.261E+03                                 F               0         Blade 1 X force, node 37, N
        110   -9.696E+01                                 F               0         Blade 1 Y force, node 37, N
        111   -5.186E+02                                 F               0         Blade 1 Z force, node 37, N
        112    3.831E+03                                 F               0         Blade 1 X force, node 38, N
        113   -6.678E+01                                 F               0         Blade 1 Y force, node 38, N
        114   -3.962E+02                                 F               0         Blade 1 Z force, node 38, N
        115    4.695E+03                                 F               0         Blade 1 X force, node 39, N
        116   -7.804E+01                                 F               0         Blade 1 Y force, node 39, N
        117   -5.038E+02                                 F               0         Blade 1 Z force, node 39, N
        118    4.003E+03                                 F               0         Blade 1 X force, node 40, N
        119   -6.340E+01                                 F               0         Blade 1 Y force, node 40, N
        120   -4.447E+02                                 F               0         Blade 1 Z force, node 40, N
        121    5.685E+03                                 F               0         Blade 1 X force, node 41, N
        122   -8.502E+01                                 F               0         Blade 1 Y force, node 41, N
        123   -6.557E+02                                 F               0         Blade 1 Z force, node 41, N
        124    4.991E+03                                 F               0         Blade 1 X force, node 42, N
        125   -7.037E+01                                 F               0         Blade 1 Y force, node 42, N
        126   -5.964E+02                                 F               0         Blade 1 Z force, node 42, N
        127    5.089E+03                                 F               0         Blade 1 X force, node 43, N
        128   -6.780E+01                                 F               0         Blade 1 Y force, node 43, N
        129   -6.272E+02                                 F               0         Blade 1 Z force, node 43, N
        130    5.215E+03                                 F               0         Blade 1 X force, node 44, N
        131   -6.557E+01                                 F               0         Blade 1 Y force, node 44, N
        132   -6.615E+02                                 F               0         Blade 1 Z force, node 44, N
        133    5.258E+03                                 F               0         Blade 1 X force, node 45, N
        134   -6.235E+01                                 F               0         Blade 1 Y force, node 45, N
        135   -6.852E+02                                 F               0         Blade 1 Z force, node 45, N
        136    5.384E+03                                 F               0         Blade 1 X force, node 46, N
        137   -6.014E+01                                 F               0         Blade 1 Y force, node 46, N
        138   -7.195E+02                                 F               0         Blade 1 Z force, node 46, N
        139    6.445E+03                                 F               0         Blade 1 X force, node 47, N
        140   -6.742E+01                                 F               0         Blade 1 Y force, node 47, N
        141   -8.832E+02                                 F               0         Blade 1 Z force, node 47, N
        142    4.619E+03                                 F               0         Blade 1 X force, node 48, N
        143   -4.523E+01                                 F               0         Blade 1 Y force, node 48, N
        144   -6.480E+02                                 F               0         Blade 1 Z force, node 48, N
        145    5.679E+03                                 F               0         Blade 1 X force, node 49, N
        146   -5.252E+01                                 F               0         Blade 1 Y force, node 49, N
        147   -8.116E+02                                 F               0         Blade 1 Z force, node 49, N
        148    4.858E+03                                 F               0         Blade 1 X force, node 50, N
        149   -4.233E+01                                 F               0         Blade 1 Y force, node 50, N
        150   -7.068E+02                                 F               0         Blade 1 Z force, node 50, N
        151    6.795E+03                                 F               0         Blade 1 X force, node 51, N
        152   -5.511E+01                                 F               0         Blade 1 Y force, node 51, N
        153   -1.008E+03                                 F               0         Blade 1 Z force, node 51, N
        154    5.976E+03                                 F               0         Blade 1 X force, node 52, N
        155   -4.497E+01                                 F               0         Blade 1 Y force, node 52, N
        156   -9.037E+02                                 F               0         Blade 1 Z force, node 52, N
        157    6.076E+03                                 F               0         Blade 1 X force, node 53, N
        158   -4.247E+01                                 F               0         Blade 1 Y force, node 53, N
        159   -9.344E+02                                 F               0         Blade 1 Z force, node 53, N
        160    6.243E+03                                 F               0         Blade 1 X force, node 54, N
        161   -4.041E+01                                 F               0         Blade 1 Y force, node 54, N
        162   -9.759E+02                                 F               0         Blade 1 Z force, node 54, N
        163    6.207E+03                                 F               0         Blade 1 X force, node 55, N
        164   -3.706E+01                                 F               0         Blade 1 Y force, node 55, N
        165   -9.852E+02                                 F               0         Blade 1 Z force, node 55, N
        166    6.375E+03                                 F               0         Blade 1 X force, node 56, N
        167   -3.499E+01                                 F               0         Blade 1 Y force, node 56, N
        168   -1.027E+03                                 F               0         Blade 1 Z force, node 56, N
        169    7.645E+03                                 F               0         Blade 1 X force, node 57, N
        170   -3.814E+01                                 F               0         Blade 1 Y force, node 57, N
        171   -1.250E+03                                 F               0         Blade 1 Z force, node 57, N
        172    5.402E+03                                 F               0         Blade 1 X force, node 58, N
        173   -2.437E+01                                 F               0         Blade 1 Y force, node 58, N
        174   -8.955E+02                                 F               0         Blade 1 Z force, node 58, N
        175    6.673E+03                                 F               0         Blade 1 X force, node 59, N
        176   -2.753E+01                                 F               0         Blade 1 Y force, node 59, N
        177   -1.119E+03                                 F               0         Blade 1 Z force, node 59, N
        178    5.736E+03                                 F               0         Blade 1 X force, node 60, N
        179   -2.145E+01                                 F               0         Blade 1 Y force, node 60, N
        180   -9.723E+02                                 F               0         Blade 1 Z force, node 60, N
        181    7.909E+03                                 F               0         Blade 1 X force, node 61, N
        182   -2.613E+01                                 F               0         Blade 1 Y force, node 61, N
        183   -1.357E+03                                 F               0         Blade 1 Z force, node 61, N
        184    6.970E+03                                 F               0         Blade 1 X force, node 62, N