
Linearized model: Predictions were generated on 06-Feb-2024 at 08:44:08 using OpenFAST, compiled as a 64-bit application using single precision at commit v3.5.1
 linked with  NWTC Subroutine Library; ElastoDyn; InflowWind; AeroDyn; ServoDyn; HydroDyn; MAP++ (<1.20.10>, <Oct-20-2023>)

Description from the FAST input file: CCT-9 Campign 4 model. Input files to be run with OpenFAST 3.5.0. GitHub branch from Lu Wang (https://github.com/luwang00/openfast/tree/dev) compiled on March 7, 2023.

Simulation information:
   Simulation time:                  2501.2000 s
   Rotor Speed:                         0.8859 rad/s
   Azimuth:                             4.2137 rad
   Wind Speed:                         10.0000 m/s
   Number of continuous states:         0
   Number of discrete states:           0
   Number of constraint states:         0
   Number of inputs:                   37
   Number of outputs:                   7
   Jacobians included in this file?    No

Order of inputs:
     Column   Operating Point                     Rotating Frame? Derivative Order Description
   ---------- ---------------                     --------------- ---------------- -----------
          1    1.247E+01                                 F               0         WAMIT X translation displacement, node 1, m
          2    2.472E-02                                 F               0         WAMIT Y translation displacement, node 1, m
          3   -1.302E-01                                 F               0         WAMIT Z translation displacement, node 1, m
          4    9.969E-01,  1.147E-03, -7.829E-02         F               0         WAMIT X orientation angle, node 1, rad
          5   -1.263E-03,  1.000E+00, -1.435E-03         F               0         WAMIT Y orientation angle, node 1, rad
          6    7.828E-02,  1.529E-03,  9.969E-01         F               0         WAMIT Z orientation angle, node 1, rad
          7   -1.304E-05                                 F               0         WAMIT X translation velocity, node 1, m/s
          8   -3.437E-04                                 F               0         WAMIT Y translation velocity, node 1, m/s
          9    2.101E-03                                 F               0         WAMIT Z translation velocity, node 1, m/s
         10   -4.743E-04                                 F               0         WAMIT X rotation velocity, node 1, rad/s
         11   -7.995E-06                                 F               0         WAMIT Y rotation velocity, node 1, rad/s
         12    1.515E-04                                 F               0         WAMIT Z rotation velocity, node 1, rad/s
         13    2.353E-05                                 F               0         WAMIT X translation acceleration, node 1, m/s^2
         14    3.102E-04                                 F               0         WAMIT Y translation acceleration, node 1, m/s^2
         15   -5.703E-04                                 F               0         WAMIT Z translation acceleration, node 1, m/s^2
         16    2.643E-05                                 F               0         WAMIT X rotation acceleration, node 1, rad/s^2
         17    2.351E-06                                 F               0         WAMIT Y rotation acceleration, node 1, rad/s^2
         18   -4.161E-05                                 F               0         WAMIT Z rotation acceleration, node 1, rad/s^2
         19    1.247E+01                                 F               0         Platform-RefPt X translation displacement, node 1, m
         20    2.472E-02                                 F               0         Platform-RefPt Y translation displacement, node 1, m
         21   -1.302E-01                                 F               0         Platform-RefPt Z translation displacement, node 1, m
         22    9.969E-01,  1.147E-03, -7.829E-02         F               0         Platform-RefPt X orientation angle, node 1, rad
         23   -1.263E-03,  1.000E+00, -1.435E-03         F               0         Platform-RefPt Y orientation angle, node 1, rad
         24    7.828E-02,  1.529E-03,  9.969E-01         F               0         Platform-RefPt Z orientation angle, node 1, rad
         25   -1.304E-05                                 F               0         Platform-RefPt X translation velocity, node 1, m/s
         26   -3.437E-04                                 F               0         Platform-RefPt Y translation velocity, node 1, m/s
         27    2.101E-03                                 F               0         Platform-RefPt Z translation velocity, node 1, m/s
         28   -4.743E-04                                 F               0         Platform-RefPt X rotation velocity, node 1, rad/s
         29   -7.995E-06                                 F               0         Platform-RefPt Y rotation velocity, node 1, rad/s
         30    1.515E-04                                 F               0         Platform-RefPt Z rotation velocity, node 1, rad/s
         31    2.353E-05                                 F               0         Platform-RefPt X translation acceleration, node 1, m/s^2
         32    3.102E-04                                 F               0         Platform-RefPt Y translation acceleration, node 1, m/s^2
         33   -5.703E-04                                 F               0         Platform-RefPt Z translation acceleration, node 1, m/s^2
         34    2.643E-05                                 F               0         Platform-RefPt X rotation acceleration, node 1, rad/s^2
         35    2.351E-06                                 F               0         Platform-RefPt Y rotation acceleration, node 1, rad/s^2
         36   -4.161E-05                                 F               0         Platform-RefPt Z rotation acceleration, node 1, rad/s^2
         37    0.000E+00                                 F               0         Extended input: wave elevation at platform ref point, m

Order of outputs:
        Row   Operating Point                     Rotating Frame? Derivative Order Description
   ---------- ---------------                     --------------- ---------------- -----------
          1    0.000E+00                                 F               0         Wave1Elev, (m)
          2   -8.554E+04                                 F               0         HydroFxi, (N)
          3   -5.452E+03                                 F               0         HydroFyi, (N)
          4    2.039E+08                                 F               0         HydroFzi, (N)
          5    2.987E+06                                 F               0         HydroMxi, (N-m)
          6   -1.676E+08                                 F               0         HydroMyi, (N-m)
          7    8.136E+05                                 F               0         HydroMzi, (N-m)


Linearized state matrices:

D: 7 x 37
    0.000E+00  0.000E+00  0.000E+00  0.000E+00  0.000E+00  0.000E+00  0.000E+00  0.000E+00  0.000E+00  0.000E+00  0.000E+00  0.000E+00  0.000E+00  0.000E+00  0.000E+00  0.000E+00  0.000E+00  0.000E+00  0.000E+00  0.000E+00  0.000E+00  0.000E+00  0.000E+00  0.000E+00  0.000E+00  0.000E+00  0.000E+00  0.000E+00  0.000E+00  0.000E+00  0.000E+00  0.000E+00  0.000E+00  0.000E+00  0.000E+00  0.000E+00  0.000E+00
   -6.860E+03  0.000E+00  0.000E+00  0.000E+00  0.000E+00  0.000E+00 -2.822E+05  0.000E+00  0.000E+00  0.000E+00  0.000E+00  0.000E+00 -9.381E+06  0.000E+00  1.995E+01  0.000E+00  9.827E+07  0.000E+00  0.000E+00  0.000E+00  0.000E+00  0.000E+00  0.000E+00  0.000E+00  0.000E+00  0.000E+00  0.000E+00  0.000E+00  0.000E+00  0.000E+00  0.000E+00  0.000E+00  0.000E+00  0.000E+00  0.000E+00  0.000E+00  0.000E+00
    0.000E+00  0.000E+00  0.000E+00  0.000E+00  0.000E+00  0.000E+00  0.000E+00 -2.822E+05  0.000E+00  0.000E+00  0.000E+00  0.000E+00  0.000E+00 -9.381E+06  0.000E+00 -9.827E+07  0.000E+00  1.786E+03  0.000E+00  0.000E+00  0.000E+00  0.000E+00  0.000E+00  0.000E+00  0.000E+00  0.000E+00  0.000E+00  0.000E+00  0.000E+00  0.000E+00  0.000E+00  0.000E+00  0.000E+00  0.000E+00  0.000E+00  0.000E+00  0.000E+00
    0.000E+00  0.000E+00 -4.395E+06  0.000E+00  4.125E+03  0.000E+00  0.000E+00  0.000E+00 -8.065E+05  0.000E+00  0.000E+00  0.000E+00  1.310E+02  0.000E+00 -2.413E+07  0.000E+00  1.765E+04  0.000E+00  0.000E+00  0.000E+00  0.000E+00  0.000E+00  0.000E+00  0.000E+00  0.000E+00  0.000E+00  0.000E+00  0.000E+00  0.000E+00  0.000E+00  0.000E+00  0.000E+00  0.000E+00  0.000E+00  0.000E+00  0.000E+00  0.000E+00
    0.000E+00  2.039E+08  5.451E+03 -2.134E+09  0.000E+00  8.881E+04  0.000E+00  0.000E+00  0.000E+00 -2.784E+09  0.000E+00  0.000E+00  0.000E+00 -9.820E+07  0.000E+00 -1.132E+10  0.000E+00  5.301E+04  0.000E+00 -2.039E+08 -5.451E+03  0.000E+00  0.000E+00  0.000E+00  0.000E+00  0.000E+00  0.000E+00  0.000E+00  0.000E+00  0.000E+00  0.000E+00  0.000E+00  0.000E+00  0.000E+00  0.000E+00  0.000E+00  0.000E+00
   -2.039E+08  0.000E+00 -8.172E+04  0.000E+00 -2.134E+09  0.000E+00  0.000E+00  0.000E+00  0.000E+00  0.000E+00 -2.783E+09  0.000E+00  9.820E+07  0.000E+00  1.938E+04  0.000E+00 -1.132E+10  0.000E+00  2.039E+08  0.000E+00  8.552E+04  0.000E+00  0.000E+00  0.000E+00  0.000E+00  0.000E+00  0.000E+00  0.000E+00  0.000E+00  0.000E+00  0.000E+00  0.000E+00  0.000E+00  0.000E+00  0.000E+00  0.000E+00  0.000E+00
   -5.452E+03  8.554E+04  0.000E+00  0.000E+00  0.000E+00  0.000E+00  0.000E+00  0.000E+00  0.000E+00  0.000E+00  0.000E+00 -2.513E+09  0.000E+00  1.554E+03  0.000E+00  4.404E+04  0.000E+00 -1.959E+10  5.452E+03 -8.554E+04  0.000E+00  0.000E+00  0.000E+00  0.000E+00  0.000E+00  0.000E+00  0.000E+00  0.000E+00  0.000E+00  0.000E+00  0.000E+00  0.000E+00  0.000E+00  0.000E+00  0.000E+00  0.000E+00  0.000E+00
