
Linearized model: Predictions were generated on 06-Feb-2024 at 08:44:08 using OpenFAST, compiled as a 64-bit application using single precision at commit v3.5.1
 linked with  NWTC Subroutine Library; ElastoDyn; InflowWind; AeroDyn; ServoDyn; HydroDyn; MAP++ (<1.20.10>, <Oct-20-2023>)

Description from the FAST input file: CCT-9 Campign 4 model. Input files to be run with OpenFAST 3.5.0. GitHub branch from Lu Wang (https://github.com/luwang00/openfast/tree/dev) compiled on March 7, 2023.

Simulation information:
   Simulation time:                  2504.4000 s
   Rotor Speed:                         0.8852 rad/s
   Azimuth:                             0.7644 rad
   Wind Speed:                         10.0000 m/s
   Number of continuous states:         0
   Number of discrete states:           0
   Number of constraint states:         0
   Number of inputs:                  303
   Number of outputs:                   1
   Jacobians included in this file?    No

Order of inputs:
     Column   Operating Point                     Rotating Frame? Derivative Order Description
   ---------- ---------------                     --------------- ---------------- -----------
          1   -1.080E+01                                 F               0         X-component position of node 1 (hub), m
          2    0.000E+00                                 F               0         Y-component position of node 1 (hub), m
          3    1.497E+02                                 F               0         Z-component position of node 1 (hub), m
          4    1.486E+01                                 F               0         X-component position of node 2 (blade 1, node 1), m
          5   -3.366E+00                                 F               0         Y-component position of node 2 (blade 1, node 1), m
          6    1.540E+02                                 F               0         Z-component position of node 2 (blade 1, node 1), m
          7    1.504E+01                                 F               0         X-component position of node 3 (blade 1, node 2), m
          8   -4.287E+00                                 F               0         Y-component position of node 3 (blade 1, node 2), m
          9    1.549E+02                                 F               0         Z-component position of node 3 (blade 1, node 2), m
         10    1.754E+01                                 F               0         X-component position of node 4 (blade 1, node 3), m
         11   -1.681E+01                                 F               0         Y-component position of node 4 (blade 1, node 3), m
         12    1.678E+02                                 F               0         Z-component position of node 4 (blade 1, node 3), m
         13    1.807E+01                                 F               0         X-component position of node 5 (blade 1, node 4), m
         14   -1.948E+01                                 F               0         Y-component position of node 5 (blade 1, node 4), m
         15    1.706E+02                                 F               0         Z-component position of node 5 (blade 1, node 4), m
         16    1.860E+01                                 F               0         X-component position of node 6 (blade 1, node 5), m
         17   -2.214E+01                                 F               0         Y-component position of node 6 (blade 1, node 5), m
         18    1.733E+02                                 F               0         Z-component position of node 6 (blade 1, node 5), m
         19    1.913E+01                                 F               0         X-component position of node 7 (blade 1, node 6), m
         20   -2.481E+01                                 F               0         Y-component position of node 7 (blade 1, node 6), m
         21    1.761E+02                                 F               0         Z-component position of node 7 (blade 1, node 6), m
         22    1.966E+01                                 F               0         X-component position of node 8 (blade 1, node 7), m
         23   -2.748E+01                                 F               0         Y-component position of node 8 (blade 1, node 7), m
         24    1.788E+02                                 F               0         Z-component position of node 8 (blade 1, node 7), m
         25    2.019E+01                                 F               0         X-component position of node 9 (blade 1, node 8), m
         26   -3.015E+01                                 F               0         Y-component position of node 9 (blade 1, node 8), m
         27    1.816E+02                                 F               0         Z-component position of node 9 (blade 1, node 8), m
         28    2.073E+01                                 F               0         X-component position of node 10 (blade 1, node 9), m
         29   -3.282E+01                                 F               0         Y-component position of node 10 (blade 1, node 9), m
         30    1.843E+02                                 F               0         Z-component position of node 10 (blade 1, node 9), m
         31    2.126E+01                                 F               0         X-component position of node 11 (blade 1, node 10), m
         32   -3.548E+01                                 F               0         Y-component position of node 11 (blade 1, node 10), m
         33    1.871E+02                                 F               0         Z-component position of node 11 (blade 1, node 10), m
         34    2.179E+01                                 F               0         X-component position of node 12 (blade 1, node 11), m
         35   -3.815E+01                                 F               0         Y-component position of node 12 (blade 1, node 11), m
         36    1.898E+02                                 F               0         Z-component position of node 12 (blade 1, node 11), m
         37    2.232E+01                                 F               0         X-component position of node 13 (blade 1, node 12), m
         38   -4.082E+01                                 F               0         Y-component position of node 13 (blade 1, node 12), m
         39    1.926E+02                                 F               0         Z-component position of node 13 (blade 1, node 12), m
         40    2.285E+01                                 F               0         X-component position of node 14 (blade 1, node 13), m
         41   -4.349E+01                                 F               0         Y-component position of node 14 (blade 1, node 13), m
         42    1.953E+02                                 F               0         Z-component position of node 14 (blade 1, node 13), m
         43    2.339E+01                                 F               0         X-component position of node 15 (blade 1, node 14), m
         44   -4.615E+01                                 F               0         Y-component position of node 15 (blade 1, node 14), m
         45    1.981E+02                                 F               0         Z-component position of node 15 (blade 1, node 14), m
         46    2.392E+01                                 F               0         X-component position of node 16 (blade 1, node 15), m
         47   -4.882E+01                                 F               0         Y-component position of node 16 (blade 1, node 15), m
         48    2.008E+02                                 F               0         Z-component position of node 16 (blade 1, node 15), m
         49    2.445E+01                                 F               0         X-component position of node 17 (blade 1, node 16), m
         50   -5.149E+01                                 F               0         Y-component position of node 17 (blade 1, node 16), m
         51    2.036E+02                                 F               0         Z-component position of node 17 (blade 1, node 16), m
         52    2.498E+01                                 F               0         X-component position of node 18 (blade 1, node 17), m
         53   -5.416E+01                                 F               0         Y-component position of node 18 (blade 1, node 17), m
         54    2.063E+02                                 F               0         Z-component position of node 18 (blade 1, node 17), m
         55    2.551E+01                                 F               0         X-component position of node 19 (blade 1, node 18), m
         56   -5.683E+01                                 F               0         Y-component position of node 19 (blade 1, node 18), m
         57    2.090E+02                                 F               0         Z-component position of node 19 (blade 1, node 18), m
         58    2.604E+01                                 F               0         X-component position of node 20 (blade 1, node 19), m
         59   -5.949E+01                                 F               0         Y-component position of node 20 (blade 1, node 19), m
         60    2.118E+02                                 F               0         Z-component position of node 20 (blade 1, node 19), m
         61    2.658E+01                                 F               0         X-component position of node 21 (blade 1, node 20), m
         62   -6.216E+01                                 F               0         Y-component position of node 21 (blade 1, node 20), m
         63    2.145E+02                                 F               0         Z-component position of node 21 (blade 1, node 20), m
         64    2.711E+01                                 F               0         X-component position of node 22 (blade 1, node 21), m
         65   -6.483E+01                                 F               0         Y-component position of node 22 (blade 1, node 21), m
         66    2.173E+02                                 F               0         Z-component position of node 22 (blade 1, node 21), m
         67    2.764E+01                                 F               0         X-component position of node 23 (blade 1, node 22), m
         68   -6.750E+01                                 F               0         Y-component position of node 23 (blade 1, node 22), m
         69    2.200E+02                                 F               0         Z-component position of node 23 (blade 1, node 22), m
         70    2.817E+01                                 F               0         X-component position of node 24 (blade 1, node 23), m
         71   -7.017E+01                                 F               0         Y-component position of node 24 (blade 1, node 23), m
         72    2.228E+02                                 F               0         Z-component position of node 24 (blade 1, node 23), m
         73    2.870E+01                                 F               0         X-component position of node 25 (blade 1, node 24), m
         74   -7.283E+01                                 F               0         Y-component position of node 25 (blade 1, node 24), m
         75    2.255E+02                                 F               0         Z-component position of node 25 (blade 1, node 24), m
         76    2.924E+01                                 F               0         X-component position of node 26 (blade 1, node 25), m
         77   -7.550E+01                                 F               0         Y-component position of node 26 (blade 1, node 25), m
         78    2.283E+02                                 F               0         Z-component position of node 26 (blade 1, node 25), m
         79    2.977E+01                                 F               0         X-component position of node 27 (blade 1, node 26), m
         80   -7.817E+01                                 F               0         Y-component position of node 27 (blade 1, node 26), m
         81    2.310E+02                                 F               0         Z-component position of node 27 (blade 1, node 26), m
         82    3.030E+01                                 F               0         X-component position of node 28 (blade 1, node 27), m
         83   -8.084E+01                                 F               0         Y-component position of node 28 (blade 1, node 27), m
         84    2.338E+02                                 F               0         Z-component position of node 28 (blade 1, node 27), m
         85    3.075E+01                                 F               0         X-component position of node 29 (blade 1, node 28), m
         86   -8.310E+01                                 F               0         Y-component position of node 29 (blade 1, node 28), m
         87    2.361E+02                                 F               0         Z-component position of node 29 (blade 1, node 28), m
         88    1.309E+01                                 F               0         X-component position of node 30 (blade 2, node 1), m
         89   -1.107E+00                                 F               0         Y-component position of node 30 (blade 2, node 1), m
         90    1.448E+02                                 F               0         Z-component position of node 30 (blade 2, node 1), m
         91    1.285E+01                                 F               0         X-component position of node 31 (blade 2, node 2), m
         92   -1.484E+00                                 F               0         Y-component position of node 31 (blade 2, node 2), m
         93    1.435E+02                                 F               0         Z-component position of node 31 (blade 2, node 2), m
         94    9.563E+00                                 F               0         X-component position of node 32 (blade 2, node 3), m
         95   -6.605E+00                                 F               0         Y-component position of node 32 (blade 2, node 3), m
         96    1.264E+02                                 F               0         Z-component position of node 32 (blade 2, node 3), m
         97    8.863E+00                                 F               0         X-component position of node 33 (blade 2, node 4), m
         98   -7.696E+00                                 F               0         Y-component position of node 33 (blade 2, node 4), m
         99    1.228E+02                                 F               0         Z-component position of node 33 (blade 2, node 4), m
        100    8.162E+00                                 F               0         X-component position of node 34 (blade 2, node 5), m
        101   -8.787E+00                                 F               0         Y-component position of node 34 (blade 2, node 5), m
        102    1.192E+02                                 F               0         Z-component position of node 34 (blade 2, node 5), m
        103    7.462E+00                                 F               0         X-component position of node 35 (blade 2, node 6), m
        104   -9.878E+00                                 F               0         Y-component position of node 35 (blade 2, node 6), m
        105    1.155E+02                                 F               0         Z-component position of node 35 (blade 2, node 6), m
        106    6.762E+00                                 F               0         X-component position of node 36 (blade 2, node 7), m
        107   -1.097E+01                                 F               0         Y-component position of node 36 (blade 2, node 7), m
        108    1.119E+02                                 F               0         Z-component position of node 36 (blade 2, node 7), m
        109    6.061E+00                                 F               0         X-component position of node 37 (blade 2, node 8), m
        110   -1.206E+01                                 F               0         Y-component position of node 37 (blade 2, node 8), m
        111    1.082E+02                                 F               0         Z-component position of node 37 (blade 2, node 8), m
        112    5.361E+00                                 F               0         X-component position of node 38 (blade 2, node 9), m
        113   -1.315E+01                                 F               0         Y-component position of node 38 (blade 2, node 9), m
        114    1.046E+02                                 F               0         Z-component position of node 38 (blade 2, node 9), m
        115    4.661E+00                                 F               0         X-component position of node 39 (blade 2, node 10), m
        116   -1.424E+01                                 F               0         Y-component position of node 39 (blade 2, node 10), m
        117    1.009E+02                                 F               0         Z-component position of node 39 (blade 2, node 10), m
        118    3.961E+00                                 F               0         X-component position of node 40 (blade 2, node 11), m
        119   -1.533E+01                                 F               0         Y-component position of node 40 (blade 2, node 11), m
        120    9.729E+01                                 F               0         Z-component position of node 40 (blade 2, node 11), m
        121    3.260E+00                                 F               0         X-component position of node 41 (blade 2, node 12), m
        122   -1.642E+01                                 F               0         Y-component position of node 41 (blade 2, node 12), m
        123    9.365E+01                                 F               0         Z-component position of node 41 (blade 2, node 12), m
        124    2.560E+00                                 F               0         X-component position of node 42 (blade 2, node 13), m
        125   -1.752E+01                                 F               0         Y-component position of node 42 (blade 2, node 13), m
        126    9.000E+01                                 F               0         Z-component position of node 42 (blade 2, node 13), m
        127    1.860E+00                                 F               0         X-component position of node 43 (blade 2, node 14), m
        128   -1.861E+01                                 F               0         Y-component position of node 43 (blade 2, node 14), m
        129    8.636E+01                                 F               0         Z-component position of node 43 (blade 2, node 14), m
        130    1.159E+00                                 F               0         X-component position of node 44 (blade 2, node 15), m
        131   -1.970E+01                                 F               0         Y-component position of node 44 (blade 2, node 15), m
        132    8.271E+01                                 F               0         Z-component position of node 44 (blade 2, node 15), m
        133    4.591E-01                                 F               0         X-component position of node 45 (blade 2, node 16), m
        134   -2.079E+01                                 F               0         Y-component position of node 45 (blade 2, node 16), m
        135    7.907E+01                                 F               0         Z-component position of node 45 (blade 2, node 16), m
        136   -2.411E-01                                 F               0         X-component position of node 46 (blade 2, node 17), m
        137   -2.188E+01                                 F               0         Y-component position of node 46 (blade 2, node 17), m
        138    7.543E+01                                 F               0         Z-component position of node 46 (blade 2, node 17), m
        139   -9.414E-01                                 F               0         X-component position of node 47 (blade 2, node 18), m
        140   -2.297E+01                                 F               0         Y-component position of node 47 (blade 2, node 18), m
        141    7.178E+01                                 F               0         Z-component position of node 47 (blade 2, node 18), m
        142   -1.642E+00                                 F               0         X-component position of node 48 (blade 2, node 19), m
        143   -2.406E+01                                 F               0         Y-component position of node 48 (blade 2, node 19), m
        144    6.814E+01                                 F               0         Z-component position of node 48 (blade 2, node 19), m
        145   -2.342E+00                                 F               0         X-component position of node 49 (blade 2, node 20), m
        146   -2.515E+01                                 F               0         Y-component position of node 49 (blade 2, node 20), m
        147    6.449E+01                                 F               0         Z-component position of node 49 (blade 2, node 20), m
        148   -3.042E+00                                 F               0         X-component position of node 50 (blade 2, node 21), m
        149   -2.624E+01                                 F               0         Y-component position of node 50 (blade 2, node 21), m
        150    6.085E+01                                 F               0         Z-component position of node 50 (blade 2, node 21), m
        151   -3.743E+00                                 F               0         X-component position of node 51 (blade 2, node 22), m
        152   -2.734E+01                                 F               0         Y-component position of node 51 (blade 2, node 22), m
        153    5.721E+01                                 F               0         Z-component position of node 51 (blade 2, node 22), m
        154   -4.443E+00                                 F               0         X-component position of node 52 (blade 2, node 23), m
        155   -2.843E+01                                 F               0         Y-component position of node 52 (blade 2, node 23), m
        156    5.356E+01                                 F               0         Z-component position of node 52 (blade 2, node 23), m
        157   -5.143E+00                                 F               0         X-component position of node 53 (blade 2, node 24), m
        158   -2.952E+01                                 F               0         Y-component position of node 53 (blade 2, node 24), m
        159    4.992E+01                                 F               0         Z-component position of node 53 (blade 2, node 24), m
        160   -5.843E+00                                 F               0         X-component position of node 54 (blade 2, node 25), m
        161   -3.061E+01                                 F               0         Y-component position of node 54 (blade 2, node 25), m
        162    4.628E+01                                 F               0         Z-component position of node 54 (blade 2, node 25), m
        163   -6.544E+00                                 F               0         X-component position of node 55 (blade 2, node 26), m
        164   -3.170E+01                                 F               0         Y-component position of node 55 (blade 2, node 26), m
        165    4.263E+01                                 F               0         Z-component position of node 55 (blade 2, node 26), m
        166   -7.244E+00                                 F               0         X-component position of node 56 (blade 2, node 27), m
        167   -3.279E+01                                 F               0         Y-component position of node 56 (blade 2, node 27), m
        168    3.899E+01                                 F               0         Z-component position of node 56 (blade 2, node 27), m
        169   -7.838E+00                                 F               0         X-component position of node 57 (blade 2, node 28), m
        170   -3.372E+01                                 F               0         Y-component position of node 57 (blade 2, node 28), m
        171    3.590E+01                                 F               0         Z-component position of node 57 (blade 2, node 28), m
        172    1.434E+01                                 F               0         X-component position of node 58 (blade 3, node 1), m
        173    5.840E+00                                 F               0         Y-component position of node 58 (blade 3, node 1), m
        174    1.513E+02                                 F               0         Z-component position of node 58 (blade 3, node 1), m
        175    1.439E+01                                 F               0         X-component position of node 59 (blade 3, node 2), m
        176    7.138E+00                                 F               0         Y-component position of node 59 (blade 3, node 2), m
        177    1.516E+02                                 F               0         Z-component position of node 59 (blade 3, node 2), m
        178    1.518E+01                                 F               0         X-component position of node 60 (blade 3, node 3), m
        179    2.478E+01                                 F               0         Y-component position of node 60 (blade 3, node 3), m
        180    1.558E+02                                 F               0         Z-component position of node 60 (blade 3, node 3), m
        181    1.535E+01                                 F               0         X-component position of node 61 (blade 3, node 4), m
        182    2.854E+01                                 F               0         Y-component position of node 61 (blade 3, node 4), m
        183    1.567E+02                                 F               0         Z-component position of node 61 (blade 3, node 4), m
        184    1.552E+01                                 F               0         X-component position of node 62 (blade 3, node 5), m
        185    3.230E+01                                 F               0         Y-component position of node 62 (blade 3, node 5), m
        186    1.576E+02                                 F               0         Z-component position of node 62 (blade 3, node 5), m
        187    1.569E+01                                 F               0         X-component position of node 63 (blade 3, node 6), m
        188    3.606E+01                                 F               0         Y-component position of node 63 (blade 3, node 6), m
        189    1.585E+02                                 F               0         Z-component position of node 63 (blade 3, node 6), m
        190    1.586E+01                                 F               0         X-component position of node 64 (blade 3, node 7), m
        191    3.982E+01                                 F               0         Y-component position of node 64 (blade 3, node 7), m
        192    1.594E+02                                 F               0         Z-component position of node 64 (blade 3, node 7), m
        193    1.603E+01                                 F               0         X-component position of node 65 (blade 3, node 8), m
        194    4.358E+01                                 F               0         Y-component position of node 65 (blade 3, node 8), m
        195    1.603E+02                                 F               0         Z-component position of node 65 (blade 3, node 8), m
        196    1.620E+01                                 F               0         X-component position of node 66 (blade 3, node 9), m
        197    4.733E+01                                 F               0         Y-component position of node 66 (blade 3, node 9), m
        198    1.612E+02                                 F               0         Z-component position of node 66 (blade 3, node 9), m
        199    1.636E+01                                 F               0         X-component position of node 67 (blade 3, node 10), m
        200    5.109E+01                                 F               0         Y-component position of node 67 (blade 3, node 10), m
        201    1.621E+02                                 F               0         Z-component position of node 67 (blade 3, node 10), m
        202    1.653E+01                                 F               0         X-component position of node 68 (blade 3, node 11), m
        203    5.485E+01                                 F               0         Y-component position of node 68 (blade 3, node 11), m
        204    1.630E+02                                 F               0         Z-component position of node 68 (blade 3, node 11), m
        205    1.670E+01                                 F               0         X-component position of node 69 (blade 3, node 12), m
        206    5.861E+01                                 F               0         Y-component position of node 69 (blade 3, node 12), m
        207    1.639E+02                                 F               0         Z-component position of node 69 (blade 3, node 12), m
        208    1.687E+01                                 F               0         X-component position of node 70 (blade 3, node 13), m
        209    6.237E+01                                 F               0         Y-component position of node 70 (blade 3, node 13), m
        210    1.648E+02                                 F               0         Z-component position of node 70 (blade 3, node 13), m
        211    1.704E+01                                 F               0         X-component position of node 71 (blade 3, node 14), m