
Linearized model: Predictions were generated on 06-Feb-2024 at 08:44:08 using OpenFAST, compiled as a 64-bit application using single precision at commit v3.5.1
 linked with  NWTC Subroutine Library; ElastoDyn; InflowWind; AeroDyn; ServoDyn; HydroDyn; MAP++ (<1.20.10>, <Oct-20-2023>)

Description from the FAST input file: CCT-9 Campign 4 model. Input files to be run with OpenFAST 3.5.0. GitHub branch from Lu Wang (https://github.com/luwang00/openfast/tree/dev) compiled on March 7, 2023.

Simulation information:
   Simulation time:                  2504.0000 s
   Rotor Speed:                         0.8853 rad/s
   Azimuth:                             0.4103 rad
   Wind Speed:                         10.0000 m/s
   Number of continuous states:         0
   Number of discrete states:           0
   Number of constraint states:         0
   Number of inputs:                  303
   Number of outputs:                   1
   Jacobians included in this file?    No

Order of inputs:
     Column   Operating Point                     Rotating Frame? Derivative Order Description
   ---------- ---------------                     --------------- ---------------- -----------
          1   -1.080E+01                                 F               0         X-component position of node 1 (hub), m
          2    0.000E+00                                 F               0         Y-component position of node 1 (hub), m
          3    1.497E+02                                 F               0         Z-component position of node 1 (hub), m
          4    1.506E+01                                 F               0         X-component position of node 2 (blade 1, node 1), m
          5   -1.758E+00                                 F               0         Y-component position of node 2 (blade 1, node 1), m
          6    1.550E+02                                 F               0         Z-component position of node 2 (blade 1, node 1), m
          7    1.529E+01                                 F               0         X-component position of node 3 (blade 1, node 2), m
          8   -2.287E+00                                 F               0         Y-component position of node 3 (blade 1, node 2), m
          9    1.562E+02                                 F               0         Z-component position of node 3 (blade 1, node 2), m
         10    1.845E+01                                 F               0         X-component position of node 4 (blade 1, node 3), m
         11   -9.477E+00                                 F               0         Y-component position of node 4 (blade 1, node 3), m
         12    1.726E+02                                 F               0         Z-component position of node 4 (blade 1, node 3), m
         13    1.912E+01                                 F               0         X-component position of node 5 (blade 1, node 4), m
         14   -1.101E+01                                 F               0         Y-component position of node 5 (blade 1, node 4), m
         15    1.761E+02                                 F               0         Z-component position of node 5 (blade 1, node 4), m
         16    1.979E+01                                 F               0         X-component position of node 6 (blade 1, node 5), m
         17   -1.254E+01                                 F               0         Y-component position of node 6 (blade 1, node 5), m
         18    1.796E+02                                 F               0         Z-component position of node 6 (blade 1, node 5), m
         19    2.047E+01                                 F               0         X-component position of node 7 (blade 1, node 6), m
         20   -1.407E+01                                 F               0         Y-component position of node 7 (blade 1, node 6), m
         21    1.830E+02                                 F               0         Z-component position of node 7 (blade 1, node 6), m
         22    2.114E+01                                 F               0         X-component position of node 8 (blade 1, node 7), m
         23   -1.560E+01                                 F               0         Y-component position of node 8 (blade 1, node 7), m
         24    1.865E+02                                 F               0         Z-component position of node 8 (blade 1, node 7), m
         25    2.181E+01                                 F               0         X-component position of node 9 (blade 1, node 8), m
         26   -1.714E+01                                 F               0         Y-component position of node 9 (blade 1, node 8), m
         27    1.900E+02                                 F               0         Z-component position of node 9 (blade 1, node 8), m
         28    2.248E+01                                 F               0         X-component position of node 10 (blade 1, node 9), m
         29   -1.867E+01                                 F               0         Y-component position of node 10 (blade 1, node 9), m
         30    1.935E+02                                 F               0         Z-component position of node 10 (blade 1, node 9), m
         31    2.316E+01                                 F               0         X-component position of node 11 (blade 1, node 10), m
         32   -2.020E+01                                 F               0         Y-component position of node 11 (blade 1, node 10), m
         33    1.970E+02                                 F               0         Z-component position of node 11 (blade 1, node 10), m
         34    2.383E+01                                 F               0         X-component position of node 12 (blade 1, node 11), m
         35   -2.173E+01                                 F               0         Y-component position of node 12 (blade 1, node 11), m
         36    2.005E+02                                 F               0         Z-component position of node 12 (blade 1, node 11), m
         37    2.450E+01                                 F               0         X-component position of node 13 (blade 1, node 12), m
         38   -2.326E+01                                 F               0         Y-component position of node 13 (blade 1, node 12), m
         39    2.040E+02                                 F               0         Z-component position of node 13 (blade 1, node 12), m
         40    2.517E+01                                 F               0         X-component position of node 14 (blade 1, node 13), m
         41   -2.480E+01                                 F               0         Y-component position of node 14 (blade 1, node 13), m
         42    2.075E+02                                 F               0         Z-component position of node 14 (blade 1, node 13), m
         43    2.585E+01                                 F               0         X-component position of node 15 (blade 1, node 14), m
         44   -2.633E+01                                 F               0         Y-component position of node 15 (blade 1, node 14), m
         45    2.109E+02                                 F               0         Z-component position of node 15 (blade 1, node 14), m
         46    2.652E+01                                 F               0         X-component position of node 16 (blade 1, node 15), m
         47   -2.786E+01                                 F               0         Y-component position of node 16 (blade 1, node 15), m
         48    2.144E+02                                 F               0         Z-component position of node 16 (blade 1, node 15), m
         49    2.719E+01                                 F               0         X-component position of node 17 (blade 1, node 16), m
         50   -2.939E+01                                 F               0         Y-component position of node 17 (blade 1, node 16), m
         51    2.179E+02                                 F               0         Z-component position of node 17 (blade 1, node 16), m
         52    2.787E+01                                 F               0         X-component position of node 18 (blade 1, node 17), m
         53   -3.092E+01                                 F               0         Y-component position of node 18 (blade 1, node 17), m
         54    2.214E+02                                 F               0         Z-component position of node 18 (blade 1, node 17), m
         55    2.854E+01                                 F               0         X-component position of node 19 (blade 1, node 18), m
         56   -3.245E+01                                 F               0         Y-component position of node 19 (blade 1, node 18), m
         57    2.249E+02                                 F               0         Z-component position of node 19 (blade 1, node 18), m
         58    2.921E+01                                 F               0         X-component position of node 20 (blade 1, node 19), m
         59   -3.399E+01                                 F               0         Y-component position of node 20 (blade 1, node 19), m
         60    2.284E+02                                 F               0         Z-component position of node 20 (blade 1, node 19), m
         61    2.988E+01                                 F               0         X-component position of node 21 (blade 1, node 20), m
         62   -3.552E+01                                 F               0         Y-component position of node 21 (blade 1, node 20), m
         63    2.319E+02                                 F               0         Z-component position of node 21 (blade 1, node 20), m
         64    3.056E+01                                 F               0         X-component position of node 22 (blade 1, node 21), m
         65   -3.705E+01                                 F               0         Y-component position of node 22 (blade 1, node 21), m
         66    2.354E+02                                 F               0         Z-component position of node 22 (blade 1, node 21), m
         67    3.123E+01                                 F               0         X-component position of node 23 (blade 1, node 22), m
         68   -3.858E+01                                 F               0         Y-component position of node 23 (blade 1, node 22), m
         69    2.388E+02                                 F               0         Z-component position of node 23 (blade 1, node 22), m
         70    3.190E+01                                 F               0         X-component position of node 24 (blade 1, node 23), m
         71   -4.011E+01                                 F               0         Y-component position of node 24 (blade 1, node 23), m
         72    2.423E+02                                 F               0         Z-component position of node 24 (blade 1, node 23), m
         73    3.257E+01                                 F               0         X-component position of node 25 (blade 1, node 24), m
         74   -4.165E+01                                 F               0         Y-component position of node 25 (blade 1, node 24), m
         75    2.458E+02                                 F               0         Z-component position of node 25 (blade 1, node 24), m
         76    3.325E+01                                 F               0         X-component position of node 26 (blade 1, node 25), m
         77   -4.318E+01                                 F               0         Y-component position of node 26 (blade 1, node 25), m
         78    2.493E+02                                 F               0         Z-component position of node 26 (blade 1, node 25), m
         79    3.392E+01                                 F               0         X-component position of node 27 (blade 1, node 26), m
         80   -4.471E+01                                 F               0         Y-component position of node 27 (blade 1, node 26), m
         81    2.528E+02                                 F               0         Z-component position of node 27 (blade 1, node 26), m
         82    3.459E+01                                 F               0         X-component position of node 28 (blade 1, node 27), m
         83   -4.624E+01                                 F               0         Y-component position of node 28 (blade 1, node 27), m
         84    2.563E+02                                 F               0         Z-component position of node 28 (blade 1, node 27), m
         85    3.516E+01                                 F               0         X-component position of node 29 (blade 1, node 28), m
         86   -4.754E+01                                 F               0         Y-component position of node 29 (blade 1, node 28), m
         87    2.592E+02                                 F               0         Z-component position of node 29 (blade 1, node 28), m
         88    1.326E+01                                 F               0         X-component position of node 30 (blade 2, node 1), m
         89   -2.873E+00                                 F               0         Y-component position of node 30 (blade 2, node 1), m
         90    1.457E+02                                 F               0         Z-component position of node 30 (blade 2, node 1), m
         91    1.306E+01                                 F               0         X-component position of node 31 (blade 2, node 2), m
         92   -3.670E+00                                 F               0         Y-component position of node 31 (blade 2, node 2), m
         93    1.446E+02                                 F               0         Z-component position of node 31 (blade 2, node 2), m
         94    1.031E+01                                 F               0         X-component position of node 32 (blade 2, node 3), m
         95   -1.451E+01                                 F               0         Y-component position of node 32 (blade 2, node 3), m
         96    1.303E+02                                 F               0         Z-component position of node 32 (blade 2, node 3), m
         97    9.730E+00                                 F               0         X-component position of node 33 (blade 2, node 4), m
         98   -1.682E+01                                 F               0         Y-component position of node 33 (blade 2, node 4), m
         99    1.273E+02                                 F               0         Z-component position of node 33 (blade 2, node 4), m
        100    9.146E+00                                 F               0         X-component position of node 34 (blade 2, node 5), m
        101   -1.913E+01                                 F               0         Y-component position of node 34 (blade 2, node 5), m
        102    1.242E+02                                 F               0         Z-component position of node 34 (blade 2, node 5), m
        103    8.562E+00                                 F               0         X-component position of node 35 (blade 2, node 6), m
        104   -2.144E+01                                 F               0         Y-component position of node 35 (blade 2, node 6), m
        105    1.212E+02                                 F               0         Z-component position of node 35 (blade 2, node 6), m
        106    7.978E+00                                 F               0         X-component position of node 36 (blade 2, node 7), m
        107   -2.375E+01                                 F               0         Y-component position of node 36 (blade 2, node 7), m
        108    1.181E+02                                 F               0         Z-component position of node 36 (blade 2, node 7), m
        109    7.394E+00                                 F               0         X-component position of node 37 (blade 2, node 8), m
        110   -2.606E+01                                 F               0         Y-component position of node 37 (blade 2, node 8), m
        111    1.151E+02                                 F               0         Z-component position of node 37 (blade 2, node 8), m
        112    6.810E+00                                 F               0         X-component position of node 38 (blade 2, node 9), m
        113   -2.837E+01                                 F               0         Y-component position of node 38 (blade 2, node 9), m
        114    1.120E+02                                 F               0         Z-component position of node 38 (blade 2, node 9), m
        115    6.226E+00                                 F               0         X-component position of node 39 (blade 2, node 10), m
        116   -3.068E+01                                 F               0         Y-component position of node 39 (blade 2, node 10), m
        117    1.090E+02                                 F               0         Z-component position of node 39 (blade 2, node 10), m
        118    5.642E+00                                 F               0         X-component position of node 40 (blade 2, node 11), m
        119   -3.299E+01                                 F               0         Y-component position of node 40 (blade 2, node 11), m
        120    1.059E+02                                 F               0         Z-component position of node 40 (blade 2, node 11), m
        121    5.057E+00                                 F               0         X-component position of node 41 (blade 2, node 12), m
        122   -3.530E+01                                 F               0         Y-component position of node 41 (blade 2, node 12), m
        123    1.029E+02                                 F               0         Z-component position of node 41 (blade 2, node 12), m
        124    4.473E+00                                 F               0         X-component position of node 42 (blade 2, node 13), m
        125   -3.761E+01                                 F               0         Y-component position of node 42 (blade 2, node 13), m
        126    9.984E+01                                 F               0         Z-component position of node 42 (blade 2, node 13), m
        127    3.889E+00                                 F               0         X-component position of node 43 (blade 2, node 14), m
        128   -3.992E+01                                 F               0         Y-component position of node 43 (blade 2, node 14), m
        129    9.679E+01                                 F               0         Z-component position of node 43 (blade 2, node 14), m
        130    3.305E+00                                 F               0         X-component position of node 44 (blade 2, node 15), m
        131   -4.223E+01                                 F               0         Y-component position of node 44 (blade 2, node 15), m
        132    9.374E+01                                 F               0         Z-component position of node 44 (blade 2, node 15), m
        133    2.721E+00                                 F               0         X-component position of node 45 (blade 2, node 16), m
        134   -4.454E+01                                 F               0         Y-component position of node 45 (blade 2, node 16), m
        135    9.070E+01                                 F               0         Z-component position of node 45 (blade 2, node 16), m
        136    2.137E+00                                 F               0         X-component position of node 46 (blade 2, node 17), m
        137   -4.685E+01                                 F               0         Y-component position of node 46 (blade 2, node 17), m
        138    8.765E+01                                 F               0         Z-component position of node 46 (blade 2, node 17), m
        139    1.553E+00                                 F               0         X-component position of node 47 (blade 2, node 18), m
        140   -4.916E+01                                 F               0         Y-component position of node 47 (blade 2, node 18), m
        141    8.460E+01                                 F               0         Z-component position of node 47 (blade 2, node 18), m
        142    9.688E-01                                 F               0         X-component position of node 48 (blade 2, node 19), m
        143   -5.147E+01                                 F               0         Y-component position of node 48 (blade 2, node 19), m
        144    8.156E+01                                 F               0         Z-component position of node 48 (blade 2, node 19), m
        145    3.848E-01                                 F               0         X-component position of node 49 (blade 2, node 20), m
        146   -5.377E+01                                 F               0         Y-component position of node 49 (blade 2, node 20), m
        147    7.851E+01                                 F               0         Z-component position of node 49 (blade 2, node 20), m
        148   -1.993E-01                                 F               0         X-component position of node 50 (blade 2, node 21), m
        149   -5.608E+01                                 F               0         Y-component position of node 50 (blade 2, node 21), m
        150    7.546E+01                                 F               0         Z-component position of node 50 (blade 2, node 21), m
        151   -7.835E-01                                 F               0         X-component position of node 51 (blade 2, node 22), m
        152   -5.839E+01                                 F               0         Y-component position of node 51 (blade 2, node 22), m
        153    7.241E+01                                 F               0         Z-component position of node 51 (blade 2, node 22), m
        154   -1.368E+00                                 F               0         X-component position of node 52 (blade 2, node 23), m
        155   -6.070E+01                                 F               0         Y-component position of node 52 (blade 2, node 23), m
        156    6.937E+01                                 F               0         Z-component position of node 52 (blade 2, node 23), m
        157   -1.952E+00                                 F               0         X-component position of node 53 (blade 2, node 24), m
        158   -6.301E+01                                 F               0         Y-component position of node 53 (blade 2, node 24), m
        159    6.632E+01                                 F               0         Z-component position of node 53 (blade 2, node 24), m
        160   -2.536E+00                                 F               0         X-component position of node 54 (blade 2, node 25), m
        161   -6.532E+01                                 F               0         Y-component position of node 54 (blade 2, node 25), m
        162    6.327E+01                                 F               0         Z-component position of node 54 (blade 2, node 25), m
        163   -3.120E+00                                 F               0         X-component position of node 55 (blade 2, node 26), m
        164   -6.763E+01                                 F               0         Y-component position of node 55 (blade 2, node 26), m
        165    6.023E+01                                 F               0         Z-component position of node 55 (blade 2, node 26), m
        166   -3.704E+00                                 F               0         X-component position of node 56 (blade 2, node 27), m
        167   -6.994E+01                                 F               0         Y-component position of node 56 (blade 2, node 27), m
        168    5.718E+01                                 F               0         Z-component position of node 56 (blade 2, node 27), m
        169   -4.199E+00                                 F               0         X-component position of node 57 (blade 2, node 28), m
        170   -7.190E+01                                 F               0         Y-component position of node 57 (blade 2, node 28), m
        171    5.460E+01                                 F               0         Z-component position of node 57 (blade 2, node 28), m
        172    1.397E+01                                 F               0         X-component position of node 58 (blade 3, node 1), m
        173    5.938E+00                                 F               0         Y-component position of node 58 (blade 3, node 1), m
        174    1.494E+02                                 F               0         Z-component position of node 58 (blade 3, node 1), m
        175    1.394E+01                                 F               0         X-component position of node 59 (blade 3, node 2), m
        176    7.264E+00                                 F               0         Y-component position of node 59 (blade 3, node 2), m
        177    1.492E+02                                 F               0         Z-component position of node 59 (blade 3, node 2), m
        178    1.352E+01                                 F               0         X-component position of node 60 (blade 3, node 3), m
        179    2.529E+01                                 F               0         Y-component position of node 60 (blade 3, node 3), m
        180    1.472E+02                                 F               0         Z-component position of node 60 (blade 3, node 3), m
        181    1.343E+01                                 F               0         X-component position of node 61 (blade 3, node 4), m
        182    2.914E+01                                 F               0         Y-component position of node 61 (blade 3, node 4), m
        183    1.467E+02                                 F               0         Z-component position of node 61 (blade 3, node 4), m
        184    1.334E+01                                 F               0         X-component position of node 62 (blade 3, node 5), m
        185    3.298E+01                                 F               0         Y-component position of node 62 (blade 3, node 5), m
        186    1.463E+02                                 F               0         Z-component position of node 62 (blade 3, node 5), m
        187    1.325E+01                                 F               0         X-component position of node 63 (blade 3, node 6), m
        188    3.682E+01                                 F               0         Y-component position of node 63 (blade 3, node 6), m
        189    1.459E+02                                 F               0         Z-component position of node 63 (blade 3, node 6), m
        190    1.317E+01                                 F               0         X-component position of node 64 (blade 3, node 7), m
        191    4.066E+01                                 F               0         Y-component position of node 64 (blade 3, node 7), m
        192    1.454E+02                                 F               0         Z-component position of node 64 (blade 3, node 7), m
        193    1.308E+01                                 F               0         X-component position of node 65 (blade 3, node 8), m
        194    4.450E+01                                 F               0         Y-component position of node 65 (blade 3, node 8), m
        195    1.450E+02                                 F               0         Z-component position of node 65 (blade 3, node 8), m
        196    1.299E+01                                 F               0         X-component position of node 66 (blade 3, node 9), m
        197    4.834E+01                                 F               0         Y-component position of node 66 (blade 3, node 9), m
        198    1.445E+02                                 F               0         Z-component position of node 66 (blade 3, node 9), m
        199    1.290E+01                                 F               0         X-component position of node 67 (blade 3, node 10), m
        200    5.218E+01                                 F               0         Y-component position of node 67 (blade 3, node 10), m
        201    1.441E+02                                 F               0         Z-component position of node 67 (blade 3, node 10), m
        202    1.281E+01                                 F               0         X-component position of node 68 (blade 3, node 11), m
        203    5.603E+01                                 F               0         Y-component position of node 68 (blade 3, node 11), m
        204    1.436E+02                                 F               0         Z-component position of node 68 (blade 3, node 11), m
        205    1.272E+01                                 F               0         X-component position of node 69 (blade 3, node 12), m
        206    5.987E+01                                 F               0         Y-component position of node 69 (blade 3, node 12), m
        207    1.432E+02                                 F               0         Z-component position of node 69 (blade 3, node 12), m
        208    1.263E+01                                 F               0         X-component position of node 70 (blade 3, node 13), m
        209    6.371E+01                                 F               0         Y-component position of node 70 (blade 3, node 13), m
        210    1.428E+02                                 F               0         Z-component position of node 70 (blade 3, node 13), m
        211    1.255E+01                                 F               0         X-component position of node 71 (blade 3, node 14), m