
Linearized model: Predictions were generated on 06-Feb-2024 at 08:44:08 using OpenFAST, compiled as a 64-bit application using single precision at commit v3.5.1
 linked with  NWTC Subroutine Library; ElastoDyn; InflowWind; AeroDyn; ServoDyn; HydroDyn; MAP++ (<1.20.10>, <Oct-20-2023>)

Description from the FAST input file: CCT-9 Campign 4 model. Input files to be run with OpenFAST 3.5.0. GitHub branch from Lu Wang (https://github.com/luwang00/openfast/tree/dev) compiled on March 7, 2023.

Simulation information:
   Simulation time:                  2504.9750 s
   Rotor Speed:                         0.8852 rad/s
   Azimuth:                             1.2734 rad
   Wind Speed:                         10.0000 m/s
   Number of continuous states:         0
   Number of discrete states:           0
   Number of constraint states:         0
   Number of inputs:                  303
   Number of outputs:                   1
   Jacobians included in this file?    No

Order of inputs:
     Column   Operating Point                     Rotating Frame? Derivative Order Description
   ---------- ---------------                     --------------- ---------------- -----------
          1   -1.080E+01                                 F               0         X-component position of node 1 (hub), m
          2    0.000E+00                                 F               0         Y-component position of node 1 (hub), m
          3    1.497E+02                                 F               0         Z-component position of node 1 (hub), m
          4    1.441E+01                                 F               0         X-component position of node 2 (blade 1, node 1), m
          5   -4.810E+00                                 F               0         Y-component position of node 2 (blade 1, node 1), m
          6    1.516E+02                                 F               0         Z-component position of node 2 (blade 1, node 1), m
          7    1.449E+01                                 F               0         X-component position of node 3 (blade 1, node 2), m
          8   -6.085E+00                                 F               0         Y-component position of node 3 (blade 1, node 2), m
          9    1.520E+02                                 F               0         Z-component position of node 3 (blade 1, node 2), m
         10    1.552E+01                                 F               0         X-component position of node 4 (blade 1, node 3), m
         11   -2.342E+01                                 F               0         Y-component position of node 4 (blade 1, node 3), m
         12    1.573E+02                                 F               0         Z-component position of node 4 (blade 1, node 3), m
         13    1.574E+01                                 F               0         X-component position of node 5 (blade 1, node 4), m
         14   -2.712E+01                                 F               0         Y-component position of node 5 (blade 1, node 4), m
         15    1.584E+02                                 F               0         Z-component position of node 5 (blade 1, node 4), m
         16    1.596E+01                                 F               0         X-component position of node 6 (blade 1, node 5), m
         17   -3.081E+01                                 F               0         Y-component position of node 6 (blade 1, node 5), m
         18    1.595E+02                                 F               0         Z-component position of node 6 (blade 1, node 5), m
         19    1.618E+01                                 F               0         X-component position of node 7 (blade 1, node 6), m
         20   -3.451E+01                                 F               0         Y-component position of node 7 (blade 1, node 6), m
         21    1.607E+02                                 F               0         Z-component position of node 7 (blade 1, node 6), m
         22    1.640E+01                                 F               0         X-component position of node 8 (blade 1, node 7), m
         23   -3.820E+01                                 F               0         Y-component position of node 8 (blade 1, node 7), m
         24    1.618E+02                                 F               0         Z-component position of node 8 (blade 1, node 7), m
         25    1.662E+01                                 F               0         X-component position of node 9 (blade 1, node 8), m
         26   -4.189E+01                                 F               0         Y-component position of node 9 (blade 1, node 8), m
         27    1.629E+02                                 F               0         Z-component position of node 9 (blade 1, node 8), m
         28    1.684E+01                                 F               0         X-component position of node 10 (blade 1, node 9), m
         29   -4.559E+01                                 F               0         Y-component position of node 10 (blade 1, node 9), m
         30    1.640E+02                                 F               0         Z-component position of node 10 (blade 1, node 9), m
         31    1.706E+01                                 F               0         X-component position of node 11 (blade 1, node 10), m
         32   -4.928E+01                                 F               0         Y-component position of node 11 (blade 1, node 10), m
         33    1.652E+02                                 F               0         Z-component position of node 11 (blade 1, node 10), m
         34    1.728E+01                                 F               0         X-component position of node 12 (blade 1, node 11), m
         35   -5.298E+01                                 F               0         Y-component position of node 12 (blade 1, node 11), m
         36    1.663E+02                                 F               0         Z-component position of node 12 (blade 1, node 11), m
         37    1.750E+01                                 F               0         X-component position of node 13 (blade 1, node 12), m
         38   -5.667E+01                                 F               0         Y-component position of node 13 (blade 1, node 12), m
         39    1.674E+02                                 F               0         Z-component position of node 13 (blade 1, node 12), m
         40    1.772E+01                                 F               0         X-component position of node 14 (blade 1, node 13), m
         41   -6.036E+01                                 F               0         Y-component position of node 14 (blade 1, node 13), m
         42    1.685E+02                                 F               0         Z-component position of node 14 (blade 1, node 13), m
         43    1.794E+01                                 F               0         X-component position of node 15 (blade 1, node 14), m
         44   -6.406E+01                                 F               0         Y-component position of node 15 (blade 1, node 14), m
         45    1.697E+02                                 F               0         Z-component position of node 15 (blade 1, node 14), m
         46    1.816E+01                                 F               0         X-component position of node 16 (blade 1, node 15), m
         47   -6.775E+01                                 F               0         Y-component position of node 16 (blade 1, node 15), m
         48    1.708E+02                                 F               0         Z-component position of node 16 (blade 1, node 15), m
         49    1.838E+01                                 F               0         X-component position of node 17 (blade 1, node 16), m
         50   -7.145E+01                                 F               0         Y-component position of node 17 (blade 1, node 16), m
         51    1.719E+02                                 F               0         Z-component position of node 17 (blade 1, node 16), m
         52    1.860E+01                                 F               0         X-component position of node 18 (blade 1, node 17), m
         53   -7.514E+01                                 F               0         Y-component position of node 18 (blade 1, node 17), m
         54    1.730E+02                                 F               0         Z-component position of node 18 (blade 1, node 17), m
         55    1.882E+01                                 F               0         X-component position of node 19 (blade 1, node 18), m
         56   -7.883E+01                                 F               0         Y-component position of node 19 (blade 1, node 18), m
         57    1.742E+02                                 F               0         Z-component position of node 19 (blade 1, node 18), m
         58    1.904E+01                                 F               0         X-component position of node 20 (blade 1, node 19), m
         59   -8.253E+01                                 F               0         Y-component position of node 20 (blade 1, node 19), m
         60    1.753E+02                                 F               0         Z-component position of node 20 (blade 1, node 19), m
         61    1.926E+01                                 F               0         X-component position of node 21 (blade 1, node 20), m
         62   -8.622E+01                                 F               0         Y-component position of node 21 (blade 1, node 20), m
         63    1.764E+02                                 F               0         Z-component position of node 21 (blade 1, node 20), m
         64    1.948E+01                                 F               0         X-component position of node 22 (blade 1, node 21), m
         65   -8.992E+01                                 F               0         Y-component position of node 22 (blade 1, node 21), m
         66    1.775E+02                                 F               0         Z-component position of node 22 (blade 1, node 21), m
         67    1.970E+01                                 F               0         X-component position of node 23 (blade 1, node 22), m
         68   -9.361E+01                                 F               0         Y-component position of node 23 (blade 1, node 22), m
         69    1.787E+02                                 F               0         Z-component position of node 23 (blade 1, node 22), m
         70    1.992E+01                                 F               0         X-component position of node 24 (blade 1, node 23), m
         71   -9.730E+01                                 F               0         Y-component position of node 24 (blade 1, node 23), m
         72    1.798E+02                                 F               0         Z-component position of node 24 (blade 1, node 23), m
         73    2.014E+01                                 F               0         X-component position of node 25 (blade 1, node 24), m
         74   -1.010E+02                                 F               0         Y-component position of node 25 (blade 1, node 24), m
         75    1.809E+02                                 F               0         Z-component position of node 25 (blade 1, node 24), m
         76    2.036E+01                                 F               0         X-component position of node 26 (blade 1, node 25), m
         77   -1.047E+02                                 F               0         Y-component position of node 26 (blade 1, node 25), m
         78    1.820E+02                                 F               0         Z-component position of node 26 (blade 1, node 25), m
         79    2.058E+01                                 F               0         X-component position of node 27 (blade 1, node 26), m
         80   -1.084E+02                                 F               0         Y-component position of node 27 (blade 1, node 26), m
         81    1.832E+02                                 F               0         Z-component position of node 27 (blade 1, node 26), m
         82    2.080E+01                                 F               0         X-component position of node 28 (blade 1, node 27), m
         83   -1.121E+02                                 F               0         Y-component position of node 28 (blade 1, node 27), m
         84    1.843E+02                                 F               0         Z-component position of node 28 (blade 1, node 27), m
         85    2.098E+01                                 F               0         X-component position of node 29 (blade 1, node 28), m
         86   -1.152E+02                                 F               0         Y-component position of node 29 (blade 1, node 28), m
         87    1.852E+02                                 F               0         Z-component position of node 29 (blade 1, node 28), m
         88    1.307E+01                                 F               0         X-component position of node 30 (blade 2, node 1), m
         89    1.705E+00                                 F               0         Y-component position of node 30 (blade 2, node 1), m
         90    1.447E+02                                 F               0         Z-component position of node 30 (blade 2, node 1), m
         91    1.283E+01                                 F               0         X-component position of node 31 (blade 2, node 2), m
         92    2.000E+00                                 F               0         Y-component position of node 31 (blade 2, node 2), m
         93    1.434E+02                                 F               0         Z-component position of node 31 (blade 2, node 2), m
         94    9.476E+00                                 F               0         X-component position of node 32 (blade 2, node 3), m
         95    6.012E+00                                 F               0         Y-component position of node 32 (blade 2, node 3), m
         96    1.261E+02                                 F               0         Z-component position of node 32 (blade 2, node 3), m
         97    8.762E+00                                 F               0         X-component position of node 33 (blade 2, node 4), m
         98    6.867E+00                                 F               0         Y-component position of node 33 (blade 2, node 4), m
         99    1.223E+02                                 F               0         Z-component position of node 33 (blade 2, node 4), m
        100    8.049E+00                                 F               0         X-component position of node 34 (blade 2, node 5), m
        101    7.722E+00                                 F               0         Y-component position of node 34 (blade 2, node 5), m
        102    1.186E+02                                 F               0         Z-component position of node 34 (blade 2, node 5), m
        103    7.335E+00                                 F               0         X-component position of node 35 (blade 2, node 6), m
        104    8.576E+00                                 F               0         Y-component position of node 35 (blade 2, node 6), m
        105    1.149E+02                                 F               0         Z-component position of node 35 (blade 2, node 6), m
        106    6.621E+00                                 F               0         X-component position of node 36 (blade 2, node 7), m
        107    9.431E+00                                 F               0         Y-component position of node 36 (blade 2, node 7), m
        108    1.112E+02                                 F               0         Z-component position of node 36 (blade 2, node 7), m
        109    5.907E+00                                 F               0         X-component position of node 37 (blade 2, node 8), m
        110    1.029E+01                                 F               0         Y-component position of node 37 (blade 2, node 8), m
        111    1.075E+02                                 F               0         Z-component position of node 37 (blade 2, node 8), m
        112    5.194E+00                                 F               0         X-component position of node 38 (blade 2, node 9), m
        113    1.114E+01                                 F               0         Y-component position of node 38 (blade 2, node 9), m
        114    1.038E+02                                 F               0         Z-component position of node 38 (blade 2, node 9), m
        115    4.480E+00                                 F               0         X-component position of node 39 (blade 2, node 10), m
        116    1.200E+01                                 F               0         Y-component position of node 39 (blade 2, node 10), m
        117    1.001E+02                                 F               0         Z-component position of node 39 (blade 2, node 10), m
        118    3.766E+00                                 F               0         X-component position of node 40 (blade 2, node 11), m
        119    1.285E+01                                 F               0         Y-component position of node 40 (blade 2, node 11), m
        120    9.642E+01                                 F               0         Z-component position of node 40 (blade 2, node 11), m
        121    3.053E+00                                 F               0         X-component position of node 41 (blade 2, node 12), m
        122    1.370E+01                                 F               0         Y-component position of node 41 (blade 2, node 12), m
        123    9.272E+01                                 F               0         Z-component position of node 41 (blade 2, node 12), m
        124    2.339E+00                                 F               0         X-component position of node 42 (blade 2, node 13), m
        125    1.456E+01                                 F               0         Y-component position of node 42 (blade 2, node 13), m
        126    8.901E+01                                 F               0         Z-component position of node 42 (blade 2, node 13), m
        127    1.625E+00                                 F               0         X-component position of node 43 (blade 2, node 14), m
        128    1.541E+01                                 F               0         Y-component position of node 43 (blade 2, node 14), m
        129    8.531E+01                                 F               0         Z-component position of node 43 (blade 2, node 14), m
        130    9.115E-01                                 F               0         X-component position of node 44 (blade 2, node 15), m
        131    1.627E+01                                 F               0         Y-component position of node 44 (blade 2, node 15), m
        132    8.161E+01                                 F               0         Z-component position of node 44 (blade 2, node 15), m
        133    1.978E-01                                 F               0         X-component position of node 45 (blade 2, node 16), m
        134    1.712E+01                                 F               0         Y-component position of node 45 (blade 2, node 16), m
        135    7.790E+01                                 F               0         Z-component position of node 45 (blade 2, node 16), m
        136   -5.158E-01                                 F               0         X-component position of node 46 (blade 2, node 17), m
        137    1.798E+01                                 F               0         Y-component position of node 46 (blade 2, node 17), m
        138    7.420E+01                                 F               0         Z-component position of node 46 (blade 2, node 17), m
        139   -1.229E+00                                 F               0         X-component position of node 47 (blade 2, node 18), m
        140    1.883E+01                                 F               0         Y-component position of node 47 (blade 2, node 18), m
        141    7.049E+01                                 F               0         Z-component position of node 47 (blade 2, node 18), m
        142   -1.943E+00                                 F               0         X-component position of node 48 (blade 2, node 19), m
        143    1.969E+01                                 F               0         Y-component position of node 48 (blade 2, node 19), m
        144    6.679E+01                                 F               0         Z-component position of node 48 (blade 2, node 19), m
        145   -2.657E+00                                 F               0         X-component position of node 49 (blade 2, node 20), m
        146    2.054E+01                                 F               0         Y-component position of node 49 (blade 2, node 20), m
        147    6.309E+01                                 F               0         Z-component position of node 49 (blade 2, node 20), m
        148   -3.371E+00                                 F               0         X-component position of node 50 (blade 2, node 21), m
        149    2.140E+01                                 F               0         Y-component position of node 50 (blade 2, node 21), m
        150    5.938E+01                                 F               0         Z-component position of node 50 (blade 2, node 21), m
        151   -4.084E+00                                 F               0         X-component position of node 51 (blade 2, node 22), m
        152    2.225E+01                                 F               0         Y-component position of node 51 (blade 2, node 22), m
        153    5.568E+01                                 F               0         Z-component position of node 51 (blade 2, node 22), m
        154   -4.798E+00                                 F               0         X-component position of node 52 (blade 2, node 23), m
        155    2.311E+01                                 F               0         Y-component position of node 52 (blade 2, node 23), m
        156    5.197E+01                                 F               0         Z-component position of node 52 (blade 2, node 23), m
        157   -5.512E+00                                 F               0         X-component position of node 53 (blade 2, node 24), m
        158    2.396E+01                                 F               0         Y-component position of node 53 (blade 2, node 24), m
        159    4.827E+01                                 F               0         Z-component position of node 53 (blade 2, node 24), m
        160   -6.225E+00                                 F               0         X-component position of node 54 (blade 2, node 25), m
        161    2.482E+01                                 F               0         Y-component position of node 54 (blade 2, node 25), m
        162    4.457E+01                                 F               0         Z-component position of node 54 (blade 2, node 25), m
        163   -6.939E+00                                 F               0         X-component position of node 55 (blade 2, node 26), m
        164    2.567E+01                                 F               0         Y-component position of node 55 (blade 2, node 26), m
        165    4.086E+01                                 F               0         Z-component position of node 55 (blade 2, node 26), m
        166   -7.653E+00                                 F               0         X-component position of node 56 (blade 2, node 27), m
        167    2.653E+01                                 F               0         Y-component position of node 56 (blade 2, node 27), m
        168    3.716E+01                                 F               0         Z-component position of node 56 (blade 2, node 27), m
        169   -8.258E+00                                 F               0         X-component position of node 57 (blade 2, node 28), m
        170    2.725E+01                                 F               0         Y-component position of node 57 (blade 2, node 28), m
        171    3.402E+01                                 F               0         Z-component position of node 57 (blade 2, node 28), m
        172    1.480E+01                                 F               0         X-component position of node 58 (blade 3, node 1), m
        173    4.548E+00                                 F               0         Y-component position of node 58 (blade 3, node 1), m
        174    1.537E+02                                 F               0         Z-component position of node 58 (blade 3, node 1), m
        175    1.497E+01                                 F               0         X-component position of node 59 (blade 3, node 2), m
        176    5.528E+00                                 F               0         Y-component position of node 59 (blade 3, node 2), m
        177    1.546E+02                                 F               0         Z-component position of node 59 (blade 3, node 2), m
        178    1.729E+01                                 F               0         X-component position of node 60 (blade 3, node 3), m
        179    1.885E+01                                 F               0         Y-component position of node 60 (blade 3, node 3), m
        180    1.667E+02                                 F               0         Z-component position of node 60 (blade 3, node 3), m
        181    1.778E+01                                 F               0         X-component position of node 61 (blade 3, node 4), m
        182    2.169E+01                                 F               0         Y-component position of node 61 (blade 3, node 4), m
        183    1.693E+02                                 F               0         Z-component position of node 61 (blade 3, node 4), m
        184    1.828E+01                                 F               0         X-component position of node 62 (blade 3, node 5), m
        185    2.453E+01                                 F               0         Y-component position of node 62 (blade 3, node 5), m
        186    1.719E+02                                 F               0         Z-component position of node 62 (blade 3, node 5), m
        187    1.877E+01                                 F               0         X-component position of node 63 (blade 3, node 6), m
        188    2.737E+01                                 F               0         Y-component position of node 63 (blade 3, node 6), m
        189    1.745E+02                                 F               0         Z-component position of node 63 (blade 3, node 6), m
        190    1.926E+01                                 F               0         X-component position of node 64 (blade 3, node 7), m
        191    3.021E+01                                 F               0         Y-component position of node 64 (blade 3, node 7), m
        192    1.770E+02                                 F               0         Z-component position of node 64 (blade 3, node 7), m
        193    1.976E+01                                 F               0         X-component position of node 65 (blade 3, node 8), m
        194    3.305E+01                                 F               0         Y-component position of node 65 (blade 3, node 8), m
        195    1.796E+02                                 F               0         Z-component position of node 65 (blade 3, node 8), m
        196    2.025E+01                                 F               0         X-component position of node 66 (blade 3, node 9), m
        197    3.589E+01                                 F               0         Y-component position of node 66 (blade 3, node 9), m
        198    1.822E+02                                 F               0         Z-component position of node 66 (blade 3, node 9), m
        199    2.075E+01                                 F               0         X-component position of node 67 (blade 3, node 10), m
        200    3.873E+01                                 F               0         Y-component position of node 67 (blade 3, node 10), m
        201    1.848E+02                                 F               0         Z-component position of node 67 (blade 3, node 10), m
        202    2.124E+01                                 F               0         X-component position of node 68 (blade 3, node 11), m
        203    4.157E+01                                 F               0         Y-component position of node 68 (blade 3, node 11), m
        204    1.873E+02                                 F               0         Z-component position of node 68 (blade 3, node 11), m
        205    2.173E+01                                 F               0         X-component position of node 69 (blade 3, node 12), m
        206    4.441E+01                                 F               0         Y-component position of node 69 (blade 3, node 12), m
        207    1.899E+02                                 F               0         Z-component position of node 69 (blade 3, node 12), m
        208    2.223E+01                                 F               0         X-component position of node 70 (blade 3, node 13), m
        209    4.725E+01                                 F               0         Y-component position of node 70 (blade 3, node 13), m
        210    1.925E+02                                 F               0         Z-component position of node 70 (blade 3, node 13), m
        211    2.272E+01                                 F               0         X-component position of node 71 (blade 3, node 14), m