
Predictions were generated on 20-Feb-2024 at 12:40:49
 OpenFAST



AirfoilNumber    TableNumber      alpha0           alpha1           alpha2           eta_e            C_nalpha         C_lalpha         T_f0             T_V0             T_p              T_VL             b1               b2               b5               A1               A2               A5               S1               S2               S3               S4               Cn1              Cn2              St_sh            Cd0              Cm0              k0               k1               k2               k3               k1_hat           x_cp_bar         UACutout         UACutout_delta   UACutout_blend   filtCutOff       alphaLowerWrap   alphaLower       alphaUpper       alphaUpperWrap   c_alphaLowerWrap c_alphaLower     c_alphaUpper     c_alphaUpperWrap c_RateWrap       c_RateLower      c_Rate           c_RateUpper     
(-)              (-)              (deg)            (deg)            (deg)            (-)              (-/rad)          (-/rad)          (-)              (-)              (-)              (-)              (-)              (-)              (-)              (-)              (-)              (-)              (-)              (-)              (-)              (-)              (-)              (-)              (-)              (-)              (-)              (-)              (-)              (-)              (-)              (-)              (-)              (deg)            (deg)            (deg)            (-)              (deg)            (deg)            (deg)            (deg)            (-)              (-)              (-)              (-)              (-/rad)          (-/rad)          (-/rad)          (-/rad)         
               1                1          0.00000          0.00000          0.00000          0.00000          0.00000          0.00000          0.00000          0.00000          0.00000          0.00000          0.00000          0.00000          0.00000          0.00000          0.00000          0.00000          0.00000          0.00000          0.00000          0.00000          0.00000          0.00000          0.00000          0.00000          0.00000          0.00000          0.00000          0.00000          0.00000          0.00000          0.00000          0.00000          0.00000          0.00000          0.00000          0.00000          0.00000          0.00000          0.00000          0.00000          0.00000          0.00000          0.00000          0.00000          0.00000          0.00000          0.00000 
               2                1          0.00000          0.00000          0.00000          0.00000          0.00000          0.00000          0.00000          0.00000          0.00000          0.00000          0.00000          0.00000          0.00000          0.00000          0.00000          0.00000          0.00000          0.00000          0.00000          0.00000          0.00000          0.00000          0.00000          0.00000          0.00000          0.00000          0.00000          0.00000          0.00000          0.00000          0.00000          0.00000          0.00000          0.00000          0.00000          0.00000          0.00000          0.00000          0.00000          0.00000          0.00000          0.00000          0.00000          0.00000          0.00000          0.00000          0.00000 
               3                1         -3.80423         16.00000        -16.00000          1.00000          0.82807          0.62982          3.00000          6.00000          1.70000         11.00000          0.14000          0.53000          5.00000          0.30000          0.70000          1.00000          0.00000          0.00000          0.00000          0.00000          0.26955         -0.20340          0.19000          0.33526         -0.00729          0.00000          0.00000          0.00000          0.00000          0.00000          0.20000         45.00000          5.00000         40.00000          0.50000        -44.42857         -9.00000         18.00000         36.14286         -0.42706         -0.04833          0.15239          0.23958         -0.13669          0.61249          0.42594          0.27533 
               4                1         -3.72578         16.00000        -16.00000          1.00000          2.03561          2.11902          3.00000          6.00000          1.70000         11.00000          0.14000          0.53000          5.00000          0.30000          0.70000          1.00000          0.00000          0.00000          0.00000          0.00000          0.62580         -0.40567          0.19000          0.29739         -0.02459          0.00000          0.00000          0.00000          0.00000          0.00000          0.20000         45.00000          5.00000         40.00000          0.50000        -44.42857         -9.00000         18.00000         36.14286         -1.44108         -0.16634          0.52175          0.82043         -0.46371          2.06154          1.46017          0.94324 
               5                1         -3.62894         16.00000        -16.00000          1.00000          3.59034          3.77795          3.00000          6.00000          1.70000         11.00000          0.14000          0.53000          5.00000          0.30000          0.70000          1.00000          0.00000          0.00000          0.00000          0.00000          1.03654         -0.41725          0.19000          0.24598         -0.04501          0.00000          0.00000          0.00000          0.00000          0.00000          0.20000         45.00000          5.00000         40.00000          0.50000        -48.57143         -9.00000         17.00000         36.14286         -2.85001         -0.31035          0.93339          1.52375         -0.91032          3.67719          2.74082          1.76700 
               6                1         -3.52191         16.00000        -16.00000          1.00000          5.10020          4.97675          3.00000          6.00000          1.70000         11.00000          0.14000          0.53000          5.00000          0.30000          0.70000          1.00000          0.00000          0.00000          0.00000          0.00000          1.37342         -0.56043          0.19000          0.19010         -0.06249          0.00000          0.00000          0.00000          0.00000          0.00000          0.20000         45.00000          5.00000         40.00000          0.50000        -48.57143         -9.00000         15.50000         40.28571         -3.78950         -0.44285          1.25745          2.12880         -1.25061          4.84564          3.97632          2.01424 
               7                1         -3.39097         14.00000        -14.00000          1.00000          6.47527          6.35603          3.00000          6.00000          1.70000         11.00000          0.14000          0.53000          5.00000          0.30000          0.70000          1.00000          0.00000          0.00000          0.00000          0.00000          1.59580         -0.67183          0.19000          0.12662         -0.07534          0.00000          0.00000          0.00000          0.00000          0.00000          0.20000         45.00000          5.00000         40.00000          0.50000        -44.42857         -5.00000          4.50000         32.00000         -4.53892         -0.16992          0.84925          3.63078         -1.65069          6.34884          6.14673          5.79526 
               8                1         -3.29324         13.00000        -13.00000          1.00000          7.24993          7.17129          3.00000          6.00000          1.70000         11.00000          0.14000          0.53000          5.00000          0.30000          0.70000          1.00000          0.00000          0.00000          0.00000          0.00000          1.63731         -0.71130          0.19000          0.08445         -0.07921          0.00000          0.00000          0.00000          0.00000          0.00000          0.20000         45.00000          5.00000         40.00000          0.50000        -44.42857         -5.00000          4.50000         32.00000         -5.04730         -0.20379          0.95851          4.17013         -1.86239          7.03837          7.00994          6.69136 
               9                1         -3.24863         12.00000        -12.00000          1.00000          7.68220          7.62707          3.00000          6.00000          1.70000         11.00000          0.14000          0.53000          5.00000          0.30000          0.70000          1.00000          0.00000          0.00000          0.00000          0.00000          1.62425         -0.71778          0.19000          0.06228         -0.07978          0.00000          0.00000          0.00000          0.00000          0.00000          0.20000         45.00000          5.00000         40.00000          0.50000        -44.42857         -5.00000          4.50000         32.00000         -5.22566         -0.21799          1.00797          4.43058         -1.95105          7.27692          7.39396          7.13093 
              10                1         -3.20525         11.00000        -11.00000          1.00000          8.05216          8.01332          3.00000          6.00000          1.70000         11.00000          0.14000          0.53000          5.00000          0.30000          0.70000          1.00000          0.00000          0.00000          0.00000          0.00000          1.60127         -0.71971          0.19000          0.04112         -0.08005          0.00000          0.00000          0.00000          0.00000          0.00000          0.20000         45.00000          5.00000         40.00000          0.50000        -44.42857         -5.00000          4.50000         32.00000         -5.38924         -0.23040          1.05097          4.66367         -2.03120          7.49659          7.72808          7.52700 
              11                1         -3.15808         11.00000        -11.00000          1.00000          8.29331          8.27327          3.00000          6.00000          1.70000         11.00000          0.14000          0.53000          5.00000          0.30000          0.70000          1.00000          0.00000          0.00000          0.00000          0.00000          1.58175         -0.72310          0.19000          0.02586         -0.08038          0.00000          0.00000          0.00000          0.00000          0.00000          0.20000         45.00000          5.00000         40.00000          0.50000        -44.42857         -5.00000          4.50000         32.00000         -5.56401         -0.24280          1.07931          4.81990         -2.09808          7.73253          7.97387          7.79345 
              12                1         -3.11171         11.00000        -11.00000          1.00000          8.40189          8.39293          3.00000          6.00000          1.70000         11.00000          0.14000          0.53000          5.00000          0.30000          0.70000          1.00000          0.00000          0.00000          0.00000          0.00000          1.57117         -0.72939          0.19000          0.01770         -0.08084          0.00000          0.00000          0.00000          0.00000          0.00000          0.20000         45.00000          5.00000         40.00000          0.50000        -44.42857         -5.00000          4.50000         32.00000         -5.74129         -0.25484          1.09228          4.89241         -2.14855          7.97266          8.12465          7.91750 
              13                1         -3.07582         11.00000        -11.00000          1.00000          8.42317          8.41765          3.00000          6.00000          1.70000         11.00000          0.14000          0.53000          5.00000          0.30000          0.70000          1.00000          0.00000          0.00000          0.00000          0.00000          1.56813         -0.73625          0.19000          0.01488         -0.08129          0.00000          0.00000          0.00000          0.00000          0.00000          0.20000         45.00000          5.00000         40.00000          0.50000        -44.42857         -5.00000          5.50000         28.00000         -5.88499         -0.26436          1.23064          4.35047         -2.03932          8.16765          8.15784          7.94457 
              14                1         -3.01114         12.00000        -12.00000          1.00000          8.43775          8.42932          3.00000          6.00000          1.70000         11.00000          0.14000          0.53000          5.00000          0.30000          0.70000          1.00000          0.00000          0.00000          0.00000          0.00000          1.62462         -0.75895          0.19000          0.01396         -0.08240          0.00000          0.00000          0.00000          0.00000          0.00000          0.20000         45.00000          5.00000         40.00000          0.50000        -40.28571         -5.00000          4.50000         32.00000         -5.35847         -0.27475          1.08543          4.87994         -2.03889          8.25478          8.20343          7.90579 
              15                1         -2.93376         12.00000        -12.00000          1.00000          8.47562          8.46070          3.00000          6.00000          1.70000         11.00000          0.14000          0.53000          5.00000          0.30000          0.70000          1.00000          0.00000          0.00000          0.00000          0.00000          1.70285         -0.78872          0.19000          0.01343         -0.08371          0.00000          0.00000          0.00000          0.00000          0.00000          0.20000         45.00000          5.00000         40.00000          0.50000        -44.42857         -3.00000          4.50000         28.00000         -5.98106         -0.00943          1.06997          4.28813         -2.04603          8.25878          8.24599          7.84625 
              16                1         -2.86970         12.00000        -12.00000          1.00000          8.48722          8.47283          3.00000          6.00000          1.70000         11.00000          0.14000          0.53000          5.00000          0.30000          0.70000          1.00000          0.00000          0.00000          0.00000          0.00000          1.75741         -0.81322          0.19000          0.01303         -0.08472          0.00000          0.00000          0.00000          0.00000          0.00000          0.20000         45.00000          5.00000         40.00000          0.50000        -44.42857         -3.00000          4.50000         28.00000         -5.97122         -0.01860          1.05552          4.25315         -2.03710          8.23248          8.20573          7.79618 
              17                1         -2.81941         13.00000        -13.00000          1.00000          8.46566          8.45400          3.00000          6.00000          1.70000         11.00000          0.14000          0.53000          5.00000          0.30000          0.70000          1.00000          0.00000          0.00000          0.00000          0.00000          1.77924         -0.83151          0.19000          0.01262         -0.08541          0.00000          0.00000          0.00000          0.00000          0.00000          0.20000         45.00000          5.00000         40.00000          0.50000        -44.42857         -3.00000          4.50000         28.00000         -5.94580         -0.02569          1.04235          4.22476         -2.02638          8.18752          8.15925          7.75909 
              18                1         -2.77365         13.00000        -13.00000          1.00000          8.37637          8.36777          3.00000          6.00000          1.70000         11.00000          0.14000          0.53000          5.00000          0.30000          0.70000          1.00000          0.00000          0.00000          0.00000          0.00000          1.77407         -0.97345          0.19000          0.01218         -0.08583          0.00000          0.00000          0.00000          0.00000          0.00000          0.20000         45.00000          5.00000         40.00000          0.50000        -40.28571         -5.00000          5.50000         32.00000         -5.30038         -0.30386          1.16237          4.74616         -2.00068          8.11318          8.00088          7.74851 
              19                1         -2.72988         13.00000        -13.00000          1.00000          8.24538          8.23604          3.00000          6.00000          1.70000         11.00000          0.14000          0.53000          5.00000          0.30000          0.70000          1.00000          0.00000          0.00000          0.00000          0.00000          1.76315         -0.99011          0.19000          0.01181         -0.08604          0.00000          0.00000          0.00000          0.00000          0.00000          0.20000         45.00000          5.00000         40.00000          0.50000        -40.28571         -5.00000          5.50000         32.00000         -5.25171         -0.30847          1.14863          4.73635         -1.98904          8.02668          7.95102          7.75703 
              20                1         -2.69177         13.00000        -13.00000          1.00000          8.11168          8.10007          3.00000          6.00000          1.70000         11.00000          0.14000          0.53000          5.00000          0.30000          0.70000          1.00000          0.00000          0.00000          0.00000          0.00000          1.74868         -1.00400          0.19000          0.01145         -0.08614          0.00000          0.00000          0.00000          0.00000          0.00000          0.20000         45.00000          5.00000         40.00000          0.50000        -44.42857         -5.00000          6.50000         28.00000         -5.77978         -0.31227          1.26601          4.12693         -1.97382          7.94513          7.86338          7.62412 
              21                1         -2.66289         13.00000        -13.00000          1.00000          8.00239          7.99265          3.00000          6.00000          1.70000         11.00000          0.14000          0.53000          5.00000          0.30000          0.70000          1.00000          0.00000          0.00000          0.00000          0.00000          1.73134         -1.01529          0.19000          0.01108         -0.08617          0.00000          0.00000          0.00000          0.00000          0.00000          0.20000         45.00000          5.00000         40.00000          0.50000        -44.42857         -5.00000          6.50000         28.00000         -5.73818         -0.31504          1.25332          4.11447         -1.96304          7.88066          7.81397          7.62474 
              22                1         -2.65047         14.00000        -14.00000          1.00000          7.95353          7.94217          3.00000          6.00000          1.70000         11.00000          0.14000          0.53000          5.00000          0.30000          0.70000          1.00000          0.00000          0.00000          0.00000          0.00000          1.71126         -1.02330          0.19000          0.01064         -0.08616          0.00000          0.00000          0.00000          0.00000          0.00000          0.20000         45.00000          5.00000         40.00000          0.50000        -40.28571         -5.00000          6.50000         28.00000         -5.15190         -0.31620          1.24104          4.09186         -1.81557          7.85205          7.75854          7.59721 
              23                1         -2.66856         14.00000        -14.00000          1.00000          7.90686          7.89597          3.00000          6.00000          1.70000         11.00000          0.14000          0.53000          5.00000          0.30000          0.70000          1.00000          0.00000          0.00000          0.00000          0.00000          1.67861         -1.02851          0.19000          0.01011         -0.08606          0.00000          0.00000          0.00000          0.00000          0.00000          0.20000         45.00000          5.00000         40.00000          0.50000        -40.28571         -5.00000          6.50000         28.00000         -5.15262         -0.31485          1.22987          4.06048         -1.80955          7.85541          7.69616          7.54337 
              24                1         -2.71567         14.00000        -14.00000          1.00000          7.78673          7.87379          3.00000          6.00000          1.70000         11.00000          0.14000          0.53000          5.00000          0.30000          0.70000          1.00000          0.00000          0.00000          0.00000          0.00000          1.62568         -1.03337          0.19000          0.00946         -0.08584          0.00000          0.00000          0.00000          0.00000          0.00000          0.20000         45.00000          5.00000         40.00000          0.50000        -40.28571         -7.00000          6.50000         32.00000         -4.74517         -0.57182          1.21819          4.54446         -1.84995          7.18373          7.59704          7.47376 
              25                1         -2.77518         14.00000        -14.00000          1.00000          7.63732          7.99334          3.00000          6.00000          1.70000         11.00000          0.14000          0.53000          5.00000          0.30000          0.70000          1.00000          0.00000          0.00000          0.00000          0.00000          1.56748         -1.03732          0.19000          0.00876         -0.08561          0.00000          0.00000          0.00000          0.00000          0.00000          0.20000         45.00000          5.00000         40.00000          0.50000        -40.28571         -7.00000          6.50000         32.00000         -4.87169         -0.57421          1.20714          4.49923         -1.86614          7.39739          7.56029          7.39697 
              26                1         -2.82677         13.00000        -13.00000          1.00000          7.51297          8.15992          3.00000          6.00000          1.70000         11.00000          0.14000          0.53000          5.00000          0.30000          0.70000          1.00000          0.00000          0.00000          0.00000          0.00000          1.68088         -1.03988          0.19000          0.00815         -0.08545          0.00000          0.00000          0.00000          0.00000          0.00000          0.20000         45.00000          5.00000         40.00000          0.50000        -40.28571         -7.00000          7.50000         32.00000         -4.97426         -0.57554          1.32025          4.25670         -1.83826          7.57166          7.49107          6.86719 
              27                1         -2.85179         13.00000        -13.00000          1.00000          7.46310          8.23018          3.00000          6.00000          1.70000         11.00000          0.14000          0.53000          5.00000          0.30000          0.70000          1.00000          0.00000          0.00000          0.00000          0.00000          1.66645         -1.04073          0.19000          0.00771         -0.08544          0.00000          0.00000          0.00000          0.00000          0.00000          0.20000         45.00000          5.00000         40.00000          0.50000        -40.28571         -7.00000          7.50000         32.00000         -5.03296         -0.57537          1.31258          4.22781         -1.84420          7.67299          7.46010          6.81757 
              28                1         -2.85429         13.00000        -13.00000          1.00000          7.44493          8.16636          3.00000          6.00000          1.70000         11.00000          0.14000          0.53000          5.00000          0.30000          0.70000          1.00000          0.00000          0.00000          0.00000          0.00000          1.67330         -1.03702          0.19000          0.00739         -0.08556          0.00000          0.00000          0.00000          0.00000          0.00000          0.20000         45.00000          5.00000         40.00000          0.50000        -40.28571         -7.00000          6.50000         32.00000         -4.99787         -0.57046          1.18655          4.39942         -1.87139          7.62105          7.45698          7.21897 
              29                1         -2.85052         13.00000        -13.00000          1.00000          7.40293          8.00326          3.00000          6.00000          1.70000         11.00000          0.14000          0.53000          5.00000          0.30000          0.70000          1.00000          0.00000          0.00000          0.00000          0.00000          1.68932         -1.02839          0.19000          0.00710         -0.08570          0.00000          0.00000          0.00000          0.00000          0.00000          0.20000         45.00000          5.00000         40.00000          0.50000        -40.28571         -7.00000          6.50000         32.00000         -4.87226         -0.56016          1.18317          4.38157         -1.84282          7.42255          7.39894          7.18646 
              30                1         -2.84499         13.00000        -13.00000          1.00000          7.35528          7.80382          3.00000          6.00000          1.70000         11.00000          0.14000          0.53000          5.00000          0.30000          0.70000          1.00000          0.00000          0.00000          0.00000          0.00000          1.70754         -1.01857          0.19000          0.00686         -0.08578          0.00000          0.00000          0.00000          0.00000          0.00000          0.20000         45.00000          5.00000         40.00000          0.50000        -44.42857         -7.00000          6.50000         32.00000         -5.24545         -0.54821          1.18023          4.36513         -1.94182          7.19054          7.33573          7.15614 
              31                1         -2.84191         13.00000        -13.00000          1.00000          7.31839          7.62617          3.00000          6.00000          1.70000         11.00000          0.14000          0.53000          5.00000          0.30000          0.70000          1.00000          0.00000          0.00000          0.00000          0.00000          1.72166         -1.01092          0.19000          0.00669         -0.08574          0.00000          0.00000          0.00000          0.00000          0.00000          0.20000         45.00000          5.00000         40.00000          0.50000        -44.42857         -7.00000          6.50000         32.00000         -5.12820         -0.53802          1.17707          4.34592         -1.91425          7.02667          7.27906          7.12007 
              32                1         -2.84455         13.00000        -13.00000          1.00000          7.30438          7.51495          3.00000          6.00000          1.70000         11.00000          0.14000          0.53000          5.00000          0.30000          0.70000          1.00000          0.00000          0.00000          0.00000          0.00000          1.72702         -1.00794          0.19000          0.00661         -0.08555          0.00000          0.00000          0.00000          0.00000          0.00000          0.20000         45.00000          5.00000         40.00000          0.50000        -44.42857         -7.00000          6.50000         32.00000         -5.10843         -0.53216          1.17324          4.32105         -1.90523          7.00538          7.23794          7.07279 
              33                1         -2.85797         13.00000        -13.00000          1.00000          7.29647          7.46703          3.00000          6.00000          1.70000         11.00000          0.14000          0.53000          5.00000          0.30000          0.70000          1.00000          0.00000          0.00000          0.00000          0.00000          1.72413         -1.00898          0.19000          0.00657         -0.08508          0.00000          0.00000          0.00000          0.00000          0.00000          0.20000         45.00000          5.00000         40.00000          0.50000        -44.42857         -7.00000          6.50000         32.00000         -5.14914         -0.52907          1.16839          4.28641         -1.90646          7.07242          7.20427          7.00585 