
Linearized model: Predictions were generated on 20-Feb-2024 at 08:38:00 using OpenFAST, compiled as a 64-bit application using single precision at commit v3.5.1
 linked with  NWTC Subroutine Library; ElastoDyn; InflowWind; AeroDyn; ServoDyn; HydroDyn; MAP++ (<1.20.10>, <Oct-20-2023>)

Description from the FAST input file: CCT-9 Campign 4 model. Input files to be run with OpenFAST 3.5.0. GitHub branch from Lu Wang (https://github.com/luwang00/openfast/tree/dev) compiled on March 7, 2023.

Simulation information:
   Simulation time:                   894.1500 s
   Rotor Speed:                         0.7916 rad/s
   Azimuth:                             3.6822 rad
   Wind Speed:                         24.0000 m/s
   Number of continuous states:        18
   Number of discrete states:           0
   Number of constraint states:         0
   Number of inputs:                    6
   Number of outputs:                  25
   Jacobians included in this file?    No

Order of continuous states:
   Row/Column Operating Point                                                   Rotating Frame? Derivative Order Description
   ---------- ---------------                                                   --------------- ---------------- -----------
          1     6.83730125427E+000                                                     F               2         Platform horizontal surge translation DOF (internal DOF index = DOF_Sg), m
          2    -8.15627694130E-001                                                     F               2         Platform horizontal sway translation DOF (internal DOF index = DOF_Sw), m
          3    -1.19202300906E-001                                                     F               2         Platform vertical heave translation DOF (internal DOF index = DOF_Hv), m
          4     5.41714914143E-002                                                     F               2         Platform roll tilt rotation DOF (internal DOF index = DOF_R), rad
          5     9.53156575561E-002                                                     F               2         Platform pitch tilt rotation DOF (internal DOF index = DOF_P), rad
          6    -9.22043062747E-003                                                     F               2         Platform yaw rotation DOF (internal DOF index = DOF_Y), rad
          7     5.29094398022E-001                                                     F               2         1st tower fore-aft bending mode DOF (internal DOF index = DOF_TFA1), m
          8     2.68057078123E-001                                                     F               2         1st tower side-to-side bending mode DOF (internal DOF index = DOF_TSS1), m
          9     2.11135935783E+000                                                     F               2         Variable speed generator DOF (internal DOF index = DOF_GeAz), rad
         10    -1.78891886026E-003                                                     F               2         First time derivative of Platform horizontal surge translation DOF (internal DOF index = DOF_Sg), m/s
         11     3.04392818362E-003                                                     F               2         First time derivative of Platform horizontal sway translation DOF (internal DOF index = DOF_Sw), m/s
         12     4.41697798669E-003                                                     F               2         First time derivative of Platform vertical heave translation DOF (internal DOF index = DOF_Hv), m/s
         13    -6.43095627311E-005                                                     F               2         First time derivative of Platform roll tilt rotation DOF (internal DOF index = DOF_R), rad/s
         14    -1.03816986666E-004                                                     F               2         First time derivative of Platform pitch tilt rotation DOF (internal DOF index = DOF_P), rad/s
         15    -4.82991072204E-006                                                     F               2         First time derivative of Platform yaw rotation DOF (internal DOF index = DOF_Y), rad/s
         16     2.43395231664E-002                                                     F               2         First time derivative of 1st tower fore-aft bending mode DOF (internal DOF index = DOF_TFA1), m/s
         17     2.37408168614E-002                                                     F               2         First time derivative of 1st tower side-to-side bending mode DOF (internal DOF index = DOF_TSS1), m/s
         18     7.91648089886E-001                                                     F               2         First time derivative of Variable speed generator DOF (internal DOF index = DOF_GeAz), rad/s

Order of continuous state derivatives:
   Row/Column Operating Point                                                   Rotating Frame? Derivative Order Description
   ---------- ---------------                                                   --------------- ---------------- -----------
          1    -1.78891886026E-003                                                     F               2         First time derivative of Platform horizontal surge translation DOF (internal DOF index = DOF_Sg), m/s
          2     3.04392818362E-003                                                     F               2         First time derivative of Platform horizontal sway translation DOF (internal DOF index = DOF_Sw), m/s
          3     4.41697798669E-003                                                     F               2         First time derivative of Platform vertical heave translation DOF (internal DOF index = DOF_Hv), m/s
          4    -6.43095627311E-005                                                     F               2         First time derivative of Platform roll tilt rotation DOF (internal DOF index = DOF_R), rad/s
          5    -1.03816986666E-004                                                     F               2         First time derivative of Platform pitch tilt rotation DOF (internal DOF index = DOF_P), rad/s
          6    -4.82991072204E-006                                                     F               2         First time derivative of Platform yaw rotation DOF (internal DOF index = DOF_Y), rad/s
          7     2.43395231664E-002                                                     F               2         First time derivative of 1st tower fore-aft bending mode DOF (internal DOF index = DOF_TFA1), m/s
          8     2.37408168614E-002                                                     F               2         First time derivative of 1st tower side-to-side bending mode DOF (internal DOF index = DOF_TSS1), m/s
          9     7.91648089886E-001                                                     F               2         First time derivative of Variable speed generator DOF (internal DOF index = DOF_GeAz), rad/s
         10    -7.84967280924E-003                                                     F               2         First time derivative of First time derivative of Platform horizontal surge translation DOF (internal DOF index = DOF_Sg), m/s/s
         11    -4.22566808993E-004                                                     F               2         First time derivative of First time derivative of Platform horizontal sway translation DOF (internal DOF index = DOF_Sw), m/s/s
         12     3.10618983349E-004                                                     F               2         First time derivative of First time derivative of Platform vertical heave translation DOF (internal DOF index = DOF_Hv), m/s/s
         13     3.09686802211E-005                                                     F               2         First time derivative of First time derivative of Platform roll tilt rotation DOF (internal DOF index = DOF_R), rad/s/s
         14    -4.82868577819E-004                                                     F               2         First time derivative of First time derivative of Platform pitch tilt rotation DOF (internal DOF index = DOF_P), rad/s/s
         15    -4.09770473198E-005                                                     F               2         First time derivative of First time derivative of Platform yaw rotation DOF (internal DOF index = DOF_Y), rad/s/s
         16     1.07099533081E-001                                                     F               2         First time derivative of First time derivative of 1st tower fore-aft bending mode DOF (internal DOF index = DOF_TFA1), m/s/s
         17    -7.41048343480E-003                                                     F               2         First time derivative of First time derivative of 1st tower side-to-side bending mode DOF (internal DOF index = DOF_TSS1), m/s/s
         18    -5.48154057469E-004                                                     F               2         First time derivative of First time derivative of Variable speed generator DOF (internal DOF index = DOF_GeAz), rad/s/s

Order of inputs:
     Column   Operating Point                                                   Rotating Frame? Derivative Order Description
   ---------- ---------------                                                   --------------- ---------------- -----------
          1     2.94774115086E-001                                                     T               0         Blade 1 pitch command, rad
          2     2.94774115086E-001                                                     T               0         Blade 2 pitch command, rad
          3     2.94774115086E-001                                                     T               0         Blade 3 pitch command, rad
          4     0.00000000000E+000                                                     F               0         Yaw moment, Nm
          5     1.86691280000E+007                                                     F               0         Generator torque, Nm
          6     2.94774115086E-001                                                     F               0         Extended input: collective blade-pitch command, rad

Order of outputs:
        Row   Operating Point                                                   Rotating Frame? Derivative Order Description
   ---------- ---------------                                                   --------------- ---------------- -----------
          1     7.55968189240E+000                                                     F               0         GenSpeed, (rpm)
          2     7.55968189240E+000                                                     F               0         RotSpeed, (rpm)
          3     1.86691269531E+004                                                     F               0         RotTorq, (kN-m)
          4     2.48646142578E+003                                                     F               0         RotThrust, (kN)
          5     1.24566820312E+005                                                     F               0         TwrBsMxt, (kN-m)
          6     2.89505093750E+005                                                     F               0         TwrBsMyt, (kN-m)
          7    -7.48533691406E+003                                                     F               0         TwrBsMzt, (kN-m)
          8     2.95826879883E+003                                                     F               0         TwrBsFxt, (kN)
          9    -9.64586914062E+002                                                     F               0         TwrBsFyt, (kN)
         10    -1.80250000000E+004                                                     F               0         TwrBsFzt, (kN)
         11     6.83730125427E+000                                                     F               0         PtfmSurge, (m)
         12    -8.15627694130E-001                                                     F               0         PtfmSway, (m)
         13    -1.19202300906E-001                                                     F               0         PtfmHeave, (m)
         14     3.10379767418E+000                                                     F               0         PtfmRoll, (deg)
         15     5.46118450165E+000                                                     F               0         PtfmPitch, (deg)
         16    -5.28291702271E-001                                                     F               0         PtfmYaw, (deg)
         17     5.29094398022E-001                                                     F               0         TTDspFA, (m)
         18    -2.68057078123E-001                                                     F               0         TTDspSS, (m)
         19    -7.84072000533E-003                                                     F               0         PtfmTAxt, (m/s^2)
         20    -4.97370609082E-004                                                     F               0         PtfmTAyt, (m/s^2)
         21    -4.10059496062E-004                                                     F               0         PtfmTAzt, (m/s^2)
         22     2.17211549170E-003                                                     F               0         PtfmRAxt, (deg/s^2)
         23    -2.77295317501E-002                                                     F               0         PtfmRAyt, (deg/s^2)
         24    -6.64371356834E-004                                                     F               0         PtfmRAzt, (deg/s^2)
         25     3.05895693600E-002                                                     F               0         YawBrTAxp, (m/s^2)


Linearized state matrices:

A: 18 x 18
     0.00000000000E+000   0.00000000000E+000   0.00000000000E+000   0.00000000000E+000   0.00000000000E+000   0.00000000000E+000   0.00000000000E+000   0.00000000000E+000   0.00000000000E+000   1.00000000000E+000   0.00000000000E+000   0.00000000000E+000   0.00000000000E+000   0.00000000000E+000   0.00000000000E+000   0.00000000000E+000   0.00000000000E+000   0.00000000000E+000
     0.00000000000E+000   0.00000000000E+000   0.00000000000E+000   0.00000000000E+000   0.00000000000E+000   0.00000000000E+000   0.00000000000E+000   0.00000000000E+000   0.00000000000E+000   0.00000000000E+000   1.00000000000E+000   0.00000000000E+000   0.00000000000E+000   0.00000000000E+000   0.00000000000E+000   0.00000000000E+000   0.00000000000E+000   0.00000000000E+000
     0.00000000000E+000   0.00000000000E+000   0.00000000000E+000   0.00000000000E+000   0.00000000000E+000   0.00000000000E+000   0.00000000000E+000   0.00000000000E+000   0.00000000000E+000   0.00000000000E+000   0.00000000000E+000   1.00000000000E+000   0.00000000000E+000   0.00000000000E+000   0.00000000000E+000   0.00000000000E+000   0.00000000000E+000   0.00000000000E+000
     0.00000000000E+000   0.00000000000E+000   0.00000000000E+000   0.00000000000E+000   0.00000000000E+000   0.00000000000E+000   0.00000000000E+000   0.00000000000E+000   0.00000000000E+000   0.00000000000E+000   0.00000000000E+000   0.00000000000E+000   1.00000000000E+000   0.00000000000E+000   0.00000000000E+000   0.00000000000E+000   0.00000000000E+000   0.00000000000E+000
     0.00000000000E+000   0.00000000000E+000   0.00000000000E+000   0.00000000000E+000   0.00000000000E+000   0.00000000000E+000   0.00000000000E+000   0.00000000000E+000   0.00000000000E+000   0.00000000000E+000   0.00000000000E+000   0.00000000000E+000   0.00000000000E+000   1.00000000000E+000   0.00000000000E+000   0.00000000000E+000   0.00000000000E+000   0.00000000000E+000
     0.00000000000E+000   0.00000000000E+000   0.00000000000E+000   0.00000000000E+000   0.00000000000E+000   0.00000000000E+000   0.00000000000E+000   0.00000000000E+000   0.00000000000E+000   0.00000000000E+000   0.00000000000E+000   0.00000000000E+000   0.00000000000E+000   0.00000000000E+000   1.00000000000E+000   0.00000000000E+000   0.00000000000E+000   0.00000000000E+000
     0.00000000000E+000   0.00000000000E+000   0.00000000000E+000   0.00000000000E+000   0.00000000000E+000   0.00000000000E+000   0.00000000000E+000   0.00000000000E+000   0.00000000000E+000   0.00000000000E+000   0.00000000000E+000   0.00000000000E+000   0.00000000000E+000   0.00000000000E+000   0.00000000000E+000   1.00000000000E+000   0.00000000000E+000   0.00000000000E+000
     0.00000000000E+000   0.00000000000E+000   0.00000000000E+000   0.00000000000E+000   0.00000000000E+000   0.00000000000E+000   0.00000000000E+000   0.00000000000E+000   0.00000000000E+000   0.00000000000E+000   0.00000000000E+000   0.00000000000E+000   0.00000000000E+000   0.00000000000E+000   0.00000000000E+000   0.00000000000E+000   1.00000000000E+000   0.00000000000E+000
     0.00000000000E+000   0.00000000000E+000   0.00000000000E+000   0.00000000000E+000   0.00000000000E+000   0.00000000000E+000   0.00000000000E+000   0.00000000000E+000   0.00000000000E+000   0.00000000000E+000   0.00000000000E+000   0.00000000000E+000   0.00000000000E+000   0.00000000000E+000   0.00000000000E+000   0.00000000000E+000   0.00000000000E+000   1.00000000000E+000
     0.00000000000E+000   0.00000000000E+000   0.00000000000E+000   2.56717723807E-002  -3.03632754343E+000   2.12786444065E-001   7.23181651483E-001  -8.24013564722E-003  -1.18282901796E-002   0.00000000000E+000   0.00000000000E+000   0.00000000000E+000   1.49177502556E-001  -7.08195939024E-002   7.11741626884E-001   2.47692733822E-003   9.70751072461E-004   1.63946341024E-004
     0.00000000000E+000   0.00000000000E+000   0.00000000000E+000   3.47231472820E+000   2.13462929307E-003   4.73284345348E-001  -7.19542604613E-003  -8.28798661265E-001  -2.85139396982E-005   0.00000000000E+000   0.00000000000E+000   0.00000000000E+000  -7.95719506218E-004   5.56925629463E-002  -4.48842846040E-003   6.56297807328E-004  -3.28484811751E-003   1.74241704619E-004
     0.00000000000E+000   0.00000000000E+000   0.00000000000E+000   6.39026878205E-002   1.29622490571E-001   7.53172730806E-004  -2.94027449695E-002  -1.60073339483E-002   3.19147135807E-004   0.00000000000E+000   0.00000000000E+000   0.00000000000E+000  -3.74309053809E-003   9.24660526990E-003  -3.19667766305E-002  -5.31717332214E-005  -9.08211656573E-005  -7.89635339487E-004
     0.00000000000E+000   0.00000000000E+000   0.00000000000E+000  -2.11194557714E-001  -7.47389766997E-004  -2.92905120877E-002   5.08660396294E-004   4.96513108745E-002  -5.00105068455E-006   0.00000000000E+000   0.00000000000E+000   0.00000000000E+000   8.27900193532E-005   8.05294810897E-004   3.79788036493E-004   1.22145505684E-005   1.95469463587E-004  -4.98943807661E-006
     0.00000000000E+000   0.00000000000E+000   0.00000000000E+000   1.18352933042E-003  -1.83319998883E-001   1.48448981749E-002   4.27777287370E-002  -4.36886967894E-004  -5.27210748895E-004   0.00000000000E+000   0.00000000000E+000   0.00000000000E+000   6.66968972956E-003  -4.49878329111E-003   3.18743081077E-002   1.34525486521E-004   4.32142326275E-005   9.90737792057E-006
     0.00000000000E+000   0.00000000000E+000   0.00000000000E+000   2.74475683204E-002  -9.30820141423E-003   1.72159668795E-003   2.11733536919E-003  -2.63760666336E-003  -1.12511919966E-004   0.00000000000E+000   0.00000000000E+000   0.00000000000E+000   9.35564136636E-004   5.17285728971E-002   4.36042674502E-003   6.48727695541E-004  -9.13811609637E-006   2.05693422854E-005
     0.00000000000E+000   0.00000000000E+000   0.00000000000E+000  -1.37070541202E-002   3.76269535293E+001  -2.52465262493E+000  -8.97305439633E+000  -8.02753035125E-004   1.49991019759E-001   0.00000000000E+000   0.00000000000E+000   0.00000000000E+000  -1.89584366368E+000   5.17086425032E-001  -9.07767677250E+000  -3.53915839498E-002  -1.26849332029E-002  -4.33401415758E-003
     0.00000000000E+000   0.00000000000E+000   0.00000000000E+000   4.30279731069E+001  -3.32780812898E-001   5.97436843319E+000  -4.12936868376E-003  -1.02674075262E+001  -6.48648497535E-003   0.00000000000E+000   0.00000000000E+000   0.00000000000E+000   2.04241899622E-002   9.11906299573E-001   8.60582241139E-002   1.12636462702E-002  -4.05233666853E-002   8.79352922738E-003
     0.00000000000E+000   0.00000000000E+000   0.00000000000E+000  -3.14784640910E-001   1.55129793175E-002  -4.45186746072E-002   1.82552925793E-004   7.65773173831E-002  -9.34677910607E-005   0.00000000000E+000   0.00000000000E+000   0.00000000000E+000  -7.18332309801E-005  -1.40498712692E-003  -2.08476224765E-004  -1.69365920125E-005   3.03076149322E-004  -9.84789643982E-005
B: 18 x 6
     0.00000000000E+000   0.00000000000E+000   0.00000000000E+000   0.00000000000E+000   0.00000000000E+000   0.00000000000E+000
     0.00000000000E+000   0.00000000000E+000   0.00000000000E+000   0.00000000000E+000   0.00000000000E+000   0.00000000000E+000
     0.00000000000E+000   0.00000000000E+000   0.00000000000E+000   0.00000000000E+000   0.00000000000E+000   0.00000000000E+000
     0.00000000000E+000   0.00000000000E+000   0.00000000000E+000   0.00000000000E+000   0.00000000000E+000   0.00000000000E+000
     0.00000000000E+000   0.00000000000E+000   0.00000000000E+000   0.00000000000E+000   0.00000000000E+000   0.00000000000E+000
     0.00000000000E+000   0.00000000000E+000   0.00000000000E+000   0.00000000000E+000   0.00000000000E+000   0.00000000000E+000
     0.00000000000E+000   0.00000000000E+000   0.00000000000E+000   0.00000000000E+000   0.00000000000E+000   0.00000000000E+000
     0.00000000000E+000   0.00000000000E+000   0.00000000000E+000   0.00000000000E+000   0.00000000000E+000   0.00000000000E+000
     0.00000000000E+000   0.00000000000E+000   0.00000000000E+000   0.00000000000E+000   0.00000000000E+000   0.00000000000E+000
     0.00000000000E+000   0.00000000000E+000   0.00000000000E+000   0.00000000000E+000   2.38050429976E-011   0.00000000000E+000
     0.00000000000E+000   0.00000000000E+000   0.00000000000E+000   0.00000000000E+000   1.56576079914E-009   0.00000000000E+000
     0.00000000000E+000   0.00000000000E+000   0.00000000000E+000   0.00000000000E+000   4.17898948023E-011   0.00000000000E+000
     0.00000000000E+000   0.00000000000E+000   0.00000000000E+000   0.00000000000E+000  -7.41943504531E-011   0.00000000000E+000
     0.00000000000E+000   0.00000000000E+000   0.00000000000E+000   0.00000000000E+000   1.32045942975E-012   0.00000000000E+000
     0.00000000000E+000   0.00000000000E+000   0.00000000000E+000   0.00000000000E+000  -9.33084680080E-012   0.00000000000E+000
     0.00000000000E+000   0.00000000000E+000   0.00000000000E+000   0.00000000000E+000   6.21795525063E-012   0.00000000000E+000
     0.00000000000E+000   0.00000000000E+000   0.00000000000E+000   0.00000000000E+000   1.97156031331E-008   0.00000000000E+000
     0.00000000000E+000   0.00000000000E+000   0.00000000000E+000   0.00000000000E+000  -1.66399174896E-009   0.00000000000E+000
C: 25 x 18
     0.00000000000E+000   0.00000000000E+000   0.00000000000E+000   0.00000000000E+000   0.00000000000E+000   0.00000000000E+000   0.00000000000E+000   0.00000000000E+000   0.00000000000E+000   0.00000000000E+000   0.00000000000E+000   0.00000000000E+000   0.00000000000E+000   0.00000000000E+000   0.00000000000E+000   0.00000000000E+000   0.00000000000E+000   9.54929430878E+000
     0.00000000000E+000   0.00000000000E+000   0.00000000000E+000   0.00000000000E+000   0.00000000000E+000   0.00000000000E+000   0.00000000000E+000   0.00000000000E+000   0.00000000000E+000   0.00000000000E+000   0.00000000000E+000   0.00000000000E+000   0.00000000000E+000   0.00000000000E+000   0.00000000000E+000   0.00000000000E+000   0.00000000000E+000   9.54929430878E+000
     0.00000000000E+000   0.00000000000E+000   0.00000000000E+000   2.79764548404E-002  -2.79764548404E-002   0.00000000000E+000   2.26438317680E-002   0.00000000000E+000   0.00000000000E+000   0.00000000000E+000   0.00000000000E+000   0.00000000000E+000   0.00000000000E+000   0.00000000000E+000   2.79764548404E-002   0.00000000000E+000   0.00000000000E+000   0.00000000000E+000
     0.00000000000E+000   0.00000000000E+000   0.00000000000E+000  -6.15342124214E+001  -6.47969664672E+002   7.72150153594E+001   1.87442242801E+003   2.64083687994E+000  -4.87244931614E+001   0.00000000000E+000   0.00000000000E+000   0.00000000000E+000   6.17059179130E+002  -1.61997661753E+002   2.95531728646E+003   7.26300903958E+000   4.13249929766E+000   1.86742836059E+000
     0.00000000000E+000   0.00000000000E+000   0.00000000000E+000   1.68138605496E+005  -1.64613460281E+003   1.60176394543E+004   4.69180194233E+001   4.61253403908E+005   6.15482006488E+001   0.00000000000E+000   0.00000000000E+000   0.00000000000E+000  -3.42096089788E+002  -2.63612062437E+004  -1.53557165328E+003  -3.25527725496E+002   1.79982232425E+003  -3.73765436667E+001
     0.00000000000E+000   0.00000000000E+000   0.00000000000E+000  -9.58809060289E+002   2.04394188571E+005  -6.42249878479E+003   4.50068075618E+005   5.86928119426E+001  -3.85537928864E+003   0.00000000000E+000   0.00000000000E+000   0.00000000000E+000   4.85859257805E+004  -1.25518043229E+004   2.32184432128E+005   1.76042205697E+003   3.26433478767E+002   8.46007994373E+001
     0.00000000000E+000   0.00000000000E+000   0.00000000000E+000  -2.62283320714E+004   7.13644392409E+003   5.18477146386E+003   6.31479858429E+001   1.85637755847E+004  -8.69627116372E+002   0.00000000000E+000   0.00000000000E+000   0.00000000000E+000   6.16082800856E+003   5.02298390528E+005   2.90500582890E+004   6.21099359851E+003   6.59331771504E+001   1.90491681008E+002
     0.00000000000E+000   0.00000000000E+000   0.00000000000E+000  -2.08844235383E+001   7.68676527020E+003  -2.94938278098E+002   2.63953202913E+003   1.50864529154E+000  -8.71501538846E+001   0.00000000000E+000   0.00000000000E+000   0.00000000000E+000   1.09841156994E+003  -2.78876295963E+002   5.24878159254E+003   1.09199878701E+001   7.36207580356E+000   1.89890187229E+000
     0.00000000000E+000   0.00000000000E+000   0.00000000000E+000  -7.04929289594E+003   6.26200485749E+001  -7.01943240172E+002  -1.38551945630E+000  -2.85525769153E+003  -1.44428448113E+000   0.00000000000E+000   0.00000000000E+000   0.00000000000E+000   7.75822063292E+000   5.95954441010E+002   3.49390950388E+001   7.36278342331E+000  -1.15837351888E+001   9.59942106710E-001
     0.00000000000E+000   0.00000000000E+000   0.00000000000E+000   1.26282919504E+003   1.93711770960E+003   1.36441170256E+002   2.47700875710E+002  -7.24829054893E+001  -9.00841845860E+000   0.00000000000E+000   0.00000000000E+000   0.00000000000E+000   8.65031983664E+001   6.63041979717E+000   3.05894557225E+002   1.40391756961E+000   4.75520467128E-001  -1.47156152460E+001
     1.00000006286E+000   0.00000000000E+000   0.00000000000E+000   0.00000000000E+000   0.00000000000E+000   0.00000000000E+000   0.00000000000E+000   0.00000000000E+000   0.00000000000E+000   0.00000000000E+000   0.00000000000E+000   0.00000000000E+000   0.00000000000E+000   0.00000000000E+000   0.00000000000E+000   0.00000000000E+000   0.00000000000E+000   0.00000000000E+000
     0.00000000000E+000   1.00000000269E+000   0.00000000000E+000   0.00000000000E+000   0.00000000000E+000   0.00000000000E+000   0.00000000000E+000   0.00000000000E+000   0.00000000000E+000   0.00000000000E+000   0.00000000000E+000   0.00000000000E+000   0.00000000000E+000   0.00000000000E+000   0.00000000000E+000   0.00000000000E+000   0.00000000000E+000   0.00000000000E+000
     0.00000000000E+000   0.00000000000E+000   9.99999942514E-001   0.00000000000E+000   0.00000000000E+000   0.00000000000E+000   0.00000000000E+000   0.00000000000E+000   0.00000000000E+000   0.00000000000E+000   0.00000000000E+000   0.00000000000E+000   0.00000000000E+000   0.00000000000E+000   0.00000000000E+000   0.00000000000E+000   0.00000000000E+000   0.00000000000E+000
     0.00000000000E+000   0.00000000000E+000   0.00000000000E+000   5.72957726829E+001   0.00000000000E+000   0.00000000000E+000   0.00000000000E+000   0.00000000000E+000   0.00000000000E+000   0.00000000000E+000   0.00000000000E+000   0.00000000000E+000   0.00000000000E+000   0.00000000000E+000   0.00000000000E+000   0.00000000000E+000   0.00000000000E+000   0.00000000000E+000
     0.00000000000E+000   0.00000000000E+000   0.00000000000E+000   0.00000000000E+000   5.72957795131E+001   0.00000000000E+000   0.00000000000E+000   0.00000000000E+000   0.00000000000E+000   0.00000000000E+000   0.00000000000E+000   0.00000000000E+000   0.00000000000E+000   0.00000000000E+000   0.00000000000E+000   0.00000000000E+000   0.00000000000E+000   0.00000000000E+000
     0.00000000000E+000   0.00000000000E+000   0.00000000000E+000   0.00000000000E+000   0.00000000000E+000   5.72957795131E+001   0.00000000000E+000   0.00000000000E+000   0.00000000000E+000   0.00000000000E+000   0.00000000000E+000   0.00000000000E+000   0.00000000000E+000   0.00000000000E+000   0.00000000000E+000   0.00000000000E+000   0.00000000000E+000   0.00000000000E+000
     0.00000000000E+000   0.00000000000E+000   0.00000000000E+000   0.00000000000E+000   0.00000000000E+000   0.00000000000E+000   1.00000006624E+000   0.00000000000E+000   0.00000000000E+000   0.00000000000E+000   0.00000000000E+000   0.00000000000E+000   0.00000000000E+000   0.00000000000E+000   0.00000000000E+000   0.00000000000E+000   0.00000000000E+000   0.00000000000E+000
     0.00000000000E+000   0.00000000000E+000   0.00000000000E+000   0.00000000000E+000   0.00000000000E+000   0.00000000000E+000   0.00000000000E+000  -9.99999893483E-001   0.00000000000E+000   0.00000000000E+000   0.00000000000E+000   0.00000000000E+000   0.00000000000E+000   0.00000000000E+000   0.00000000000E+000   0.00000000000E+000   0.00000000000E+000   0.00000000000E+000