
Linearized model: Predictions were generated on 08-Jan-2024 at 09:43:14 using OpenFAST, compiled as a 64-bit application using single precision at commit v3.5.1
 linked with  NWTC Subroutine Library; ElastoDyn; InflowWind; AeroDyn; ServoDyn; HydroDyn; MoorDyn (v2.0.0, 2023-09-18)

Description from the FAST input file: CCT-9 Campign 4 model. Input files to be run with OpenFAST 3.5.0. GitHub branch from Lu Wang (https://github.com/luwang00/openfast/tree/dev) compiled on March 7, 2023.

Simulation information:
   Simulation time:                  1006.4750 s
   Rotor Speed:                         0.7078 rad/s
   Azimuth:                             3.7683 rad
   Wind Speed:                          8.0000 m/s
   Number of continuous states:         0
   Number of discrete states:           0
   Number of constraint states:         0
   Number of inputs:                 1746
   Number of outputs:                   4
   Jacobians included in this file?    No

Order of inputs:
     Column   Operating Point                     Rotating Frame? Derivative Order Description
   ---------- ---------------                     --------------- ---------------- -----------
          1    7.250E+00                                 F               0         Tower X translation displacement, node 1, m
          2   -1.277E+00                                 F               0         Tower Y translation displacement, node 1, m
          3   -1.637E-01                                 F               0         Tower Z translation displacement, node 1, m
          4    8.292E+00                                 F               0         Tower X translation displacement, node 2, m
          5   -1.818E+00                                 F               0         Tower Y translation displacement, node 2, m
          6   -2.196E-01                                 F               0         Tower Z translation displacement, node 2, m
          7    9.350E+00                                 F               0         Tower X translation displacement, node 3, m
          8   -2.364E+00                                 F               0         Tower Y translation displacement, node 3, m
          9   -2.771E-01                                 F               0         Tower Z translation displacement, node 3, m
         10    1.042E+01                                 F               0         Tower X translation displacement, node 4, m
         11   -2.915E+00                                 F               0         Tower Y translation displacement, node 4, m
         12   -3.358E-01                                 F               0         Tower Z translation displacement, node 4, m
         13    1.150E+01                                 F               0         Tower X translation displacement, node 5, m
         14   -3.468E+00                                 F               0         Tower Y translation displacement, node 5, m
         15   -3.955E-01                                 F               0         Tower Z translation displacement, node 5, m
         16    1.259E+01                                 F               0         Tower X translation displacement, node 6, m
         17   -4.025E+00                                 F               0         Tower Y translation displacement, node 6, m
         18   -4.559E-01                                 F               0         Tower Z translation displacement, node 6, m
         19    1.368E+01                                 F               0         Tower X translation displacement, node 7, m
         20   -4.584E+00                                 F               0         Tower Y translation displacement, node 7, m
         21   -5.169E-01                                 F               0         Tower Z translation displacement, node 7, m
         22    1.477E+01                                 F               0         Tower X translation displacement, node 8, m
         23   -5.145E+00                                 F               0         Tower Y translation displacement, node 8, m
         24   -5.784E-01                                 F               0         Tower Z translation displacement, node 8, m
         25    1.587E+01                                 F               0         Tower X translation displacement, node 9, m
         26   -5.708E+00                                 F               0         Tower Y translation displacement, node 9, m
         27   -6.401E-01                                 F               0         Tower Z translation displacement, node 9, m
         28    1.697E+01                                 F               0         Tower X translation displacement, node 10, m
         29   -6.271E+00                                 F               0         Tower Y translation displacement, node 10, m
         30   -7.021E-01                                 F               0         Tower Z translation displacement, node 10, m
         31    1.807E+01                                 F               0         Tower X translation displacement, node 11, m
         32   -6.835E+00                                 F               0         Tower Y translation displacement, node 11, m
         33   -7.641E-01                                 F               0         Tower Z translation displacement, node 11, m
         34    9.965E-01,  4.120E-03, -8.374E-02         F               0         Tower X orientation angle, node 1, rad
         35   -4.490E-04,  9.990E-01,  4.381E-02         F               0         Tower Y orientation angle, node 1, rad
         36    8.384E-02, -4.362E-02,  9.955E-01         F               0         Tower Z orientation angle, node 1, rad
         37    9.964E-01,  4.173E-03, -8.494E-02         F               0         Tower X orientation angle, node 2, rad
         38   -4.154E-04,  9.990E-01,  4.420E-02         F               0         Tower Y orientation angle, node 2, rad
         39    8.504E-02, -4.401E-02,  9.954E-01         F               0         Tower Z orientation angle, node 2, rad
         40    9.963E-01,  4.219E-03, -8.598E-02         F               0         Tower X orientation angle, node 3, rad
         41   -3.848E-04,  9.990E-01,  4.456E-02         F               0         Tower Y orientation angle, node 3, rad
         42    8.608E-02, -4.436E-02,  9.953E-01         F               0         Tower Z orientation angle, node 3, rad
         43    9.962E-01,  4.257E-03, -8.684E-02         F               0         Tower X orientation angle, node 4, rad
         44   -3.578E-04,  9.990E-01,  4.487E-02         F               0         Tower Y orientation angle, node 4, rad
         45    8.694E-02, -4.467E-02,  9.952E-01         F               0         Tower Z orientation angle, node 4, rad
         46    9.962E-01,  4.288E-03, -8.752E-02         F               0         Tower X orientation angle, node 5, rad
         47   -3.344E-04,  9.990E-01,  4.514E-02         F               0         Tower Y orientation angle, node 5, rad
         48    8.762E-02, -4.494E-02,  9.951E-01         F               0         Tower Z orientation angle, node 5, rad
         49    9.961E-01,  4.312E-03, -8.804E-02         F               0         Tower X orientation angle, node 6, rad
         50   -3.148E-04,  9.990E-01,  4.536E-02         F               0         Tower Y orientation angle, node 6, rad
         51    8.815E-02, -4.516E-02,  9.951E-01         F               0         Tower Z orientation angle, node 6, rad
         52    9.961E-01,  4.329E-03, -8.841E-02         F               0         Tower X orientation angle, node 7, rad
         53   -2.990E-04,  9.990E-01,  4.554E-02         F               0         Tower Y orientation angle, node 7, rad
         54    8.852E-02, -4.534E-02,  9.950E-01         F               0         Tower Z orientation angle, node 7, rad
         55    9.961E-01,  4.340E-03, -8.867E-02         F               0         Tower X orientation angle, node 8, rad
         56   -2.867E-04,  9.990E-01,  4.568E-02         F               0         Tower Y orientation angle, node 8, rad
         57    8.877E-02, -4.547E-02,  9.950E-01         F               0         Tower Z orientation angle, node 8, rad
         58    9.960E-01,  4.348E-03, -8.883E-02         F               0         Tower X orientation angle, node 9, rad
         59   -2.777E-04,  9.990E-01,  4.578E-02         F               0         Tower Y orientation angle, node 9, rad
         60    8.894E-02, -4.558E-02,  9.950E-01         F               0         Tower Z orientation angle, node 9, rad
         61    9.960E-01,  4.352E-03, -8.892E-02         F               0         Tower X orientation angle, node 10, rad
         62   -2.719E-04,  9.989E-01,  4.585E-02         F               0         Tower Y orientation angle, node 10, rad
         63    8.903E-02, -4.564E-02,  9.950E-01         F               0         Tower Z orientation angle, node 10, rad
         64    9.960E-01,  4.354E-03, -8.896E-02         F               0         Tower X orientation angle, node 11, rad
         65   -2.686E-04,  9.989E-01,  4.588E-02         F               0         Tower Y orientation angle, node 11, rad
         66    8.907E-02, -4.568E-02,  9.950E-01         F               0         Tower Z orientation angle, node 11, rad
         67   -1.953E-04                                 F               0         Tower X translation velocity, node 1, m/s
         68   -8.385E-04                                 F               0         Tower Y translation velocity, node 1, m/s
         69   -2.106E-03                                 F               0         Tower Z translation velocity, node 1, m/s
         70   -2.055E-04                                 F               0         Tower X translation velocity, node 2, m/s
         71   -8.900E-04                                 F               0         Tower Y translation velocity, node 2, m/s
         72   -2.107E-03                                 F               0         Tower Z translation velocity, node 2, m/s
         73   -2.139E-04                                 F               0         Tower X translation velocity, node 3, m/s
         74   -9.317E-04                                 F               0         Tower Y translation velocity, node 3, m/s
         75   -2.108E-03                                 F               0         Tower Z translation velocity, node 3, m/s
         76   -2.210E-04                                 F               0         Tower X translation velocity, node 4, m/s
         77   -9.654E-04                                 F               0         Tower Y translation velocity, node 4, m/s
         78   -2.109E-03                                 F               0         Tower Z translation velocity, node 4, m/s
         79   -2.274E-04                                 F               0         Tower X translation velocity, node 5, m/s
         80   -9.917E-04                                 F               0         Tower Y translation velocity, node 5, m/s
         81   -2.110E-03                                 F               0         Tower Z translation velocity, node 5, m/s
         82   -2.334E-04                                 F               0         Tower X translation velocity, node 6, m/s
         83   -1.012E-03                                 F               0         Tower Y translation velocity, node 6, m/s
         84   -2.110E-03                                 F               0         Tower Z translation velocity, node 6, m/s
         85   -2.392E-04                                 F               0         Tower X translation velocity, node 7, m/s
         86   -1.026E-03                                 F               0         Tower Y translation velocity, node 7, m/s
         87   -2.110E-03                                 F               0         Tower Z translation velocity, node 7, m/s
         88   -2.450E-04                                 F               0         Tower X translation velocity, node 8, m/s
         89   -1.036E-03                                 F               0         Tower Y translation velocity, node 8, m/s
         90   -2.110E-03                                 F               0         Tower Z translation velocity, node 8, m/s
         91   -2.511E-04                                 F               0         Tower X translation velocity, node 9, m/s
         92   -1.042E-03                                 F               0         Tower Y translation velocity, node 9, m/s
         93   -2.110E-03                                 F               0         Tower Z translation velocity, node 9, m/s
         94   -2.573E-04                                 F               0         Tower X translation velocity, node 10, m/s
         95   -1.045E-03                                 F               0         Tower Y translation velocity, node 10, m/s
         96   -2.110E-03                                 F               0         Tower Z translation velocity, node 10, m/s
         97   -2.638E-04                                 F               0         Tower X translation velocity, node 11, m/s
         98   -1.047E-03                                 F               0         Tower Y translation velocity, node 11, m/s
         99   -2.109E-03                                 F               0         Tower Z translation velocity, node 11, m/s
        100    1.881E+01                                 F               0         Hub X translation displacement, node 1, m
        101   -7.241E+00                                 F               0         Hub Y translation displacement, node 1, m
        102    1.573E-01                                 F               0         Hub Z translation displacement, node 1, m
        103    9.813E-01,  9.105E-03, -1.925E-01         F               0         Hub X orientation angle, node 1, rad
        104   -1.128E-01, -7.827E-01, -6.120E-01         F               0         Hub Y orientation angle, node 1, rad
        105   -1.562E-01,  6.223E-01, -7.670E-01         F               0         Hub Z orientation angle, node 1, rad
        106    6.945E-01                                 F               0         Hub X rotation velocity, node 1, rad/s
        107    6.444E-03                                 F               0         Hub Y rotation velocity, node 1, rad/s
        108   -1.362E-01                                 F               0         Hub Z rotation velocity, node 1, rad/s
        109    9.842E-01,  3.232E-02, -1.742E-01         F               0         Blade root 1 X orientation angle, node 1, rad
        110   -8.363E-02, -7.821E-01, -6.175E-01         F               0         Blade root 1 Y orientation angle, node 1, rad
        111   -1.562E-01,  6.223E-01, -7.670E-01         F               0         Blade root 1 Z orientation angle, node 1, rad
        112    9.832E-01, -1.850E-02, -1.818E-01         F               0         Blade root 2 X orientation angle, node 1, rad
        113   -4.976E-02,  9.301E-01, -3.638E-01         F               0         Blade root 2 Y orientation angle, node 1, rad
        114    1.758E-01,  3.667E-01,  9.136E-01         F               0         Blade root 2 Z orientation angle, node 1, rad
        115    9.751E-01,  1.348E-02, -2.212E-01         F               0         Blade root 3 X orientation angle, node 1, rad
        116    2.207E-01, -1.472E-01,  9.642E-01         F               0         Blade root 3 Y orientation angle, node 1, rad
        117   -1.956E-02, -9.890E-01, -1.465E-01         F               0         Blade root 3 Z orientation angle, node 1, rad
        118    1.737E+01                                 F               0         Blade 1 X translation displacement, node 1, m
        119   -3.794E+00                                 F               0         Blade 1 Y translation displacement, node 1, m
        120   -9.602E+00                                 F               0         Blade 1 Z translation displacement, node 1, m
        121    1.702E+01                                 F               0         Blade 1 X translation displacement, node 2, m
        122   -2.963E+00                                 F               0         Blade 1 Y translation displacement, node 2, m
        123   -1.195E+01                                 F               0         Blade 1 Z translation displacement, node 2, m
        124    1.229E+01                                 F               0         Blade 1 X translation displacement, node 3, m
        125    8.333E+00                                 F               0         Blade 1 Y translation displacement, node 3, m
        126   -4.393E+01                                 F               0         Blade 1 Z translation displacement, node 3, m
        127    1.128E+01                                 F               0         Blade 1 X translation displacement, node 4, m
        128    1.074E+01                                 F               0         Blade 1 Y translation displacement, node 4, m
        129   -5.074E+01                                 F               0         Blade 1 Z translation displacement, node 4, m
        130    1.027E+01                                 F               0         Blade 1 X translation displacement, node 5, m
        131    1.315E+01                                 F               0         Blade 1 Y translation displacement, node 5, m
        132   -5.756E+01                                 F               0         Blade 1 Z translation displacement, node 5, m
        133    9.260E+00                                 F               0         Blade 1 X translation displacement, node 6, m
        134    1.555E+01                                 F               0         Blade 1 Y translation displacement, node 6, m
        135   -6.437E+01                                 F               0         Blade 1 Z translation displacement, node 6, m
        136    8.252E+00                                 F               0         Blade 1 X translation displacement, node 7, m
        137    1.796E+01                                 F               0         Blade 1 Y translation displacement, node 7, m
        138   -7.118E+01                                 F               0         Blade 1 Z translation displacement, node 7, m
        139    7.243E+00                                 F               0         Blade 1 X translation displacement, node 8, m
        140    2.037E+01                                 F               0         Blade 1 Y translation displacement, node 8, m
        141   -7.800E+01                                 F               0         Blade 1 Z translation displacement, node 8, m
        142    6.235E+00                                 F               0         Blade 1 X translation displacement, node 9, m
        143    2.277E+01                                 F               0         Blade 1 Y translation displacement, node 9, m
        144   -8.481E+01                                 F               0         Blade 1 Z translation displacement, node 9, m
        145    5.226E+00                                 F               0         Blade 1 X translation displacement, node 10, m
        146    2.518E+01                                 F               0         Blade 1 Y translation displacement, node 10, m
        147   -9.162E+01                                 F               0         Blade 1 Z translation displacement, node 10, m
        148    4.218E+00                                 F               0         Blade 1 X translation displacement, node 11, m
        149    2.759E+01                                 F               0         Blade 1 Y translation displacement, node 11, m
        150   -9.844E+01                                 F               0         Blade 1 Z translation displacement, node 11, m
        151    3.209E+00                                 F               0         Blade 1 X translation displacement, node 12, m
        152    2.999E+01                                 F               0         Blade 1 Y translation displacement, node 12, m
        153   -1.052E+02                                 F               0         Blade 1 Z translation displacement, node 12, m
        154    2.200E+00                                 F               0         Blade 1 X translation displacement, node 13, m
        155    3.240E+01                                 F               0         Blade 1 Y translation displacement, node 13, m
        156   -1.121E+02                                 F               0         Blade 1 Z translation displacement, node 13, m
        157    1.192E+00                                 F               0         Blade 1 X translation displacement, node 14, m
        158    3.481E+01                                 F               0         Blade 1 Y translation displacement, node 14, m
        159   -1.189E+02                                 F               0         Blade 1 Z translation displacement, node 14, m
        160    1.832E-01                                 F               0         Blade 1 X translation displacement, node 15, m
        161    3.721E+01                                 F               0         Blade 1 Y translation displacement, node 15, m
        162   -1.257E+02                                 F               0         Blade 1 Z translation displacement, node 15, m
        163   -8.253E-01                                 F               0         Blade 1 X translation displacement, node 16, m
        164    3.962E+01                                 F               0         Blade 1 Y translation displacement, node 16, m
        165   -1.325E+02                                 F               0         Blade 1 Z translation displacement, node 16, m
        166   -1.834E+00                                 F               0         Blade 1 X translation displacement, node 17, m
        167    4.203E+01                                 F               0         Blade 1 Y translation displacement, node 17, m
        168   -1.393E+02                                 F               0         Blade 1 Z translation displacement, node 17, m
        169   -2.842E+00                                 F               0         Blade 1 X translation displacement, node 18, m
        170    4.443E+01                                 F               0         Blade 1 Y translation displacement, node 18, m
        171   -1.461E+02                                 F               0         Blade 1 Z translation displacement, node 18, m
        172   -3.851E+00                                 F               0         Blade 1 X translation displacement, node 19, m
        173    4.684E+01                                 F               0         Blade 1 Y translation displacement, node 19, m
        174   -1.529E+02                                 F               0         Blade 1 Z translation displacement, node 19, m
        175   -4.859E+00                                 F               0         Blade 1 X translation displacement, node 20, m
        176    4.925E+01                                 F               0         Blade 1 Y translation displacement, node 20, m
        177   -1.598E+02                                 F               0         Blade 1 Z translation displacement, node 20, m
        178   -5.868E+00                                 F               0         Blade 1 X translation displacement, node 21, m
        179    5.165E+01                                 F               0         Blade 1 Y translation displacement, node 21, m
        180   -1.666E+02                                 F               0         Blade 1 Z translation displacement, node 21, m
        181   -6.877E+00                                 F               0         Blade 1 X translation displacement, node 22, m
        182    5.406E+01                                 F               0         Blade 1 Y translation displacement, node 22, m
        183   -1.734E+02                                 F               0         Blade 1 Z translation displacement, node 22, m
        184   -7.885E+00                                 F               0         Blade 1 X translation displacement, node 23, m
        185    5.647E+01                                 F               0         Blade 1 Y translation displacement, node 23, m
        186   -1.802E+02                                 F               0         Blade 1 Z translation displacement, node 23, m
        187   -8.894E+00                                 F               0         Blade 1 X translation displacement, node 24, m
        188    5.888E+01                                 F               0         Blade 1 Y translation displacement, node 24, m
        189   -1.870E+02                                 F               0         Blade 1 Z translation displacement, node 24, m
        190   -9.902E+00                                 F               0         Blade 1 X translation displacement, node 25, m
        191    6.128E+01                                 F               0         Blade 1 Y translation displacement, node 25, m
        192   -1.938E+02                                 F               0         Blade 1 Z translation displacement, node 25, m
        193   -1.091E+01                                 F               0         Blade 1 X translation displacement, node 26, m
        194    6.369E+01                                 F               0         Blade 1 Y translation displacement, node 26, m
        195   -2.006E+02                                 F               0         Blade 1 Z translation displacement, node 26, m
        196   -1.192E+01                                 F               0         Blade 1 X translation displacement, node 27, m
        197    6.610E+01                                 F               0         Blade 1 Y translation displacement, node 27, m
        198   -2.074E+02                                 F               0         Blade 1 Z translation displacement, node 27, m
        199   -1.277E+01                                 F               0         Blade 1 X translation displacement, node 28, m
        200    6.814E+01                                 F               0         Blade 1 Y translation displacement, node 28, m
        201   -2.132E+02                                 F               0         Blade 1 Z translation displacement, node 28, m
        202    9.140E-01,  3.854E-01,  1.265E-01         F               0         Blade 1 X orientation angle, node 1, rad
        203    3.744E-01, -6.813E-01, -6.290E-01         F               0         Blade 1 Y orientation angle, node 1, rad
        204   -1.562E-01,  6.223E-01, -7.670E-01         F               0         Blade 1 Z orientation angle, node 1, rad
        205    9.140E-01,  3.854E-01,  1.265E-01         F               0         Blade 1 X orientation angle, node 2, rad
        206    3.744E-01, -6.813E-01, -6.290E-01         F               0         Blade 1 Y orientation angle, node 2, rad
        207   -1.562E-01,  6.223E-01, -7.670E-01         F               0         Blade 1 Z orientation angle, node 2, rad
        208    9.767E-01,  2.130E-01, -2.617E-02         F               0         Blade 1 X orientation angle, node 3, rad
        209    1.471E-01, -7.533E-01, -6.411E-01         F               0         Blade 1 Y orientation angle, node 3, rad
        210   -1.562E-01,  6.223E-01, -7.670E-01         F               0         Blade 1 Z orientation angle, node 3, rad
        211    9.820E-01,  1.810E-01, -5.321E-02         F               0         Blade 1 X orientation angle, node 4, rad
        212    1.057E-01, -7.616E-01, -6.394E-01         F               0         Blade 1 Y orientation angle, node 4, rad
        213   -1.562E-01,  6.223E-01, -7.670E-01         F               0         Blade 1 Z orientation angle, node 4, rad
        214    9.850E-01,  1.556E-01, -7.438E-02         F               0         Blade 1 X orientation angle, node 5, rad
        215    7.308E-02, -7.672E-01, -6.373E-01         F               0         Blade 1 Y orientation angle, node 5, rad
        216   -1.562E-01,  6.223E-01, -7.670E-01         F               0         Blade 1 Z orientation angle, node 5, rad
        217    9.866E-01,  1.352E-01, -9.126E-02         F               0         Blade 1 X orientation angle, node 6, rad
        218    4.692E-02, -7.710E-01, -6.351E-01         F               0         Blade 1 Y orientation angle, node 6, rad
        219   -1.562E-01,  6.223E-01, -7.670E-01         F               0         Blade 1 Z orientation angle, node 6, rad
        220    9.874E-01,  1.184E-01, -1.051E-01         F               0         Blade 1 X orientation angle, node 7, rad
        221    2.539E-02, -7.738E-01, -6.329E-01         F               0         Blade 1 Y orientation angle, node 7, rad
        222   -1.562E-01,  6.223E-01, -7.670E-01         F               0         Blade 1 Z orientation angle, node 7, rad
        223    9.877E-01,  1.043E-01, -1.166E-01         F               0         Blade 1 X orientation angle, node 8, rad
        224    7.465E-03, -7.758E-01, -6.309E-01         F               0         Blade 1 Y orientation angle, node 8, rad
        225   -1.562E-01,  6.223E-01, -7.670E-01         F               0         Blade 1 Z orientation angle, node 8, rad
        226    9.877E-01,  9.237E-02, -1.262E-01         F               0         Blade 1 X orientation angle, node 9, rad
        227   -7.705E-03, -7.773E-01, -6.290E-01         F               0         Blade 1 Y orientation angle, node 9, rad