
Linearized model: Predictions were generated on 08-Jan-2024 at 09:43:14 using OpenFAST, compiled as a 64-bit application using single precision at commit v3.5.1
 linked with  NWTC Subroutine Library; ElastoDyn; InflowWind; AeroDyn; ServoDyn; HydroDyn; MoorDyn (v2.0.0, 2023-09-18)

Description from the FAST input file: CCT-9 Campign 4 model. Input files to be run with OpenFAST 3.5.0. GitHub branch from Lu Wang (https://github.com/luwang00/openfast/tree/dev) compiled on March 7, 2023.

Simulation information:
   Simulation time:                  1004.4750 s
   Rotor Speed:                         0.7075 rad/s
   Azimuth:                             2.3529 rad
   Wind Speed:                          8.0000 m/s
   Number of continuous states:         0
   Number of discrete states:           0
   Number of constraint states:         0
   Number of inputs:                   54
   Number of outputs:                   0
   Jacobians included in this file?    No

Order of inputs:
     Column   Operating Point                     Rotating Frame? Derivative Order Description
   ---------- ---------------                     --------------- ---------------- -----------
          1    4.427E+00                                 F               0         CoupledKinematics X translation displacement, node 1, m
          2    3.223E-01                                 F               0         CoupledKinematics Y translation displacement, node 1, m
          3   -4.765E+00                                 F               0         CoupledKinematics Z translation displacement, node 1, m
          4    4.384E+00                                 F               0         CoupledKinematics X translation displacement, node 2, m
          5    2.205E-01                                 F               0         CoupledKinematics Y translation displacement, node 2, m
          6   -1.916E-01                                 F               0         CoupledKinematics Z translation displacement, node 2, m
          7    4.718E+00                                 F               0         CoupledKinematics X translation displacement, node 3, m
          8   -9.428E-02                                 F               0         CoupledKinematics Y translation displacement, node 3, m
          9    4.962E+00                                 F               0         CoupledKinematics Z translation displacement, node 3, m
         10    9.965E-01,  4.116E-03, -8.373E-02         F               0         CoupledKinematics X orientation angle, node 1, rad
         11   -4.433E-04,  9.990E-01,  4.383E-02         F               0         CoupledKinematics Y orientation angle, node 1, rad
         12    8.383E-02, -4.364E-02,  9.955E-01         F               0         CoupledKinematics Z orientation angle, node 1, rad
         13    9.965E-01,  4.116E-03, -8.373E-02         F               0         CoupledKinematics X orientation angle, node 2, rad
         14   -4.433E-04,  9.990E-01,  4.383E-02         F               0         CoupledKinematics Y orientation angle, node 2, rad
         15    8.383E-02, -4.364E-02,  9.955E-01         F               0         CoupledKinematics Z orientation angle, node 2, rad
         16    9.965E-01,  4.116E-03, -8.373E-02         F               0         CoupledKinematics X orientation angle, node 3, rad
         17   -4.433E-04,  9.990E-01,  4.383E-02         F               0         CoupledKinematics Y orientation angle, node 3, rad
         18    8.383E-02, -4.364E-02,  9.955E-01         F               0         CoupledKinematics Z orientation angle, node 3, rad
         19   -6.727E-05                                 F               0         CoupledKinematics X translation velocity, node 1, m/s
         20   -6.647E-04                                 F               0         CoupledKinematics Y translation velocity, node 1, m/s
         21   -1.682E-03                                 F               0         CoupledKinematics Z translation velocity, node 1, m/s
         22   -2.652E-04                                 F               0         CoupledKinematics X translation velocity, node 2, m/s
         23   -5.342E-04                                 F               0         CoupledKinematics Y translation velocity, node 2, m/s
         24   -4.652E-03                                 F               0         CoupledKinematics Z translation velocity, node 2, m/s
         25   -1.258E-04                                 F               0         CoupledKinematics X translation velocity, node 3, m/s
         26   -5.757E-04                                 F               0         CoupledKinematics Y translation velocity, node 3, m/s
         27   -2.685E-03                                 F               0         CoupledKinematics Z translation velocity, node 3, m/s
         28   -2.890E-05                                 F               0         CoupledKinematics X rotation velocity, node 1, rad/s
         29    5.324E-06                                 F               0         CoupledKinematics Y rotation velocity, node 1, rad/s
         30    2.160E-06                                 F               0         CoupledKinematics Z rotation velocity, node 1, rad/s
         31   -2.890E-05                                 F               0         CoupledKinematics X rotation velocity, node 2, rad/s
         32    5.324E-06                                 F               0         CoupledKinematics Y rotation velocity, node 2, rad/s
         33    2.160E-06                                 F               0         CoupledKinematics Z rotation velocity, node 2, rad/s
         34   -2.890E-05                                 F               0         CoupledKinematics X rotation velocity, node 3, rad/s
         35    5.324E-06                                 F               0         CoupledKinematics Y rotation velocity, node 3, rad/s
         36    2.160E-06                                 F               0         CoupledKinematics Z rotation velocity, node 3, rad/s
         37    8.298E-05                                 F               0         CoupledKinematics X translation acceleration, node 1, m/s^2
         38    8.269E-05                                 F               0         CoupledKinematics Y translation acceleration, node 1, m/s^2
         39   -6.944E-04                                 F               0         CoupledKinematics Z translation acceleration, node 1, m/s^2
         40   -9.999E-05                                 F               0         CoupledKinematics X translation acceleration, node 2, m/s^2
         41   -8.088E-06                                 F               0         CoupledKinematics Y translation acceleration, node 2, m/s^2
         42    1.317E-03                                 F               0         CoupledKinematics Z translation acceleration, node 2, m/s^2
         43   -1.268E-05                                 F               0         CoupledKinematics X translation acceleration, node 3, m/s^2
         44   -2.630E-04                                 F               0         CoupledKinematics Y translation acceleration, node 3, m/s^2
         45    2.467E-04                                 F               0         CoupledKinematics Z translation acceleration, node 3, m/s^2
         46    1.955E-05                                 F               0         CoupledKinematics X rotation acceleration, node 1, rad/s^2
         47   -6.468E-07                                 F               0         CoupledKinematics Y rotation acceleration, node 1, rad/s^2
         48    1.749E-06                                 F               0         CoupledKinematics Z rotation acceleration, node 1, rad/s^2
         49    1.955E-05                                 F               0         CoupledKinematics X rotation acceleration, node 2, rad/s^2
         50   -6.468E-07                                 F               0         CoupledKinematics Y rotation acceleration, node 2, rad/s^2
         51    1.749E-06                                 F               0         CoupledKinematics Z rotation acceleration, node 2, rad/s^2
         52    1.955E-05                                 F               0         CoupledKinematics X rotation acceleration, node 3, rad/s^2
         53   -6.468E-07                                 F               0         CoupledKinematics Y rotation acceleration, node 3, rad/s^2
         54    1.749E-06                                 F               0         CoupledKinematics Z rotation acceleration, node 3, rad/s^2


Linearized state matrices:

