
Linearized model: Predictions were generated on 08-Jan-2024 at 09:43:14 using OpenFAST, compiled as a 64-bit application using single precision at commit v3.5.1
 linked with  NWTC Subroutine Library; ElastoDyn; InflowWind; AeroDyn; ServoDyn; HydroDyn; MoorDyn (v2.0.0, 2023-09-18)

Description from the FAST input file: CCT-9 Campign 4 model. Input files to be run with OpenFAST 3.5.0. GitHub branch from Lu Wang (https://github.com/luwang00/openfast/tree/dev) compiled on March 7, 2023.

Simulation information:
   Simulation time:                  1000.7500 s
   Rotor Speed:                         0.7075 rad/s
   Azimuth:                             6.0010 rad
   Wind Speed:                          8.0000 m/s
   Number of continuous states:         0
   Number of discrete states:           0
   Number of constraint states:         0
   Number of inputs:                  303
   Number of outputs:                   1
   Jacobians included in this file?    No

Order of inputs:
     Column   Operating Point                     Rotating Frame? Derivative Order Description
   ---------- ---------------                     --------------- ---------------- -----------
          1   -1.080E+01                                 F               0         X-component position of node 1 (hub), m
          2    0.000E+00                                 F               0         Y-component position of node 1 (hub), m
          3    1.497E+02                                 F               0         Z-component position of node 1 (hub), m
          4    9.038E+00                                 F               0         X-component position of node 2 (blade 1, node 1), m
          5   -5.964E+00                                 F               0         Y-component position of node 2 (blade 1, node 1), m
          6    1.552E+02                                 F               0         Z-component position of node 2 (blade 1, node 1), m
          7    9.285E+00                                 F               0         X-component position of node 3 (blade 1, node 2), m
          8   -5.650E+00                                 F               0         Y-component position of node 3 (blade 1, node 2), m
          9    1.565E+02                                 F               0         Z-component position of node 3 (blade 1, node 2), m
         10    1.264E+01                                 F               0         X-component position of node 4 (blade 1, node 3), m
         11   -1.387E+00                                 F               0         Y-component position of node 4 (blade 1, node 3), m
         12    1.738E+02                                 F               0         Z-component position of node 4 (blade 1, node 3), m
         13    1.336E+01                                 F               0         X-component position of node 5 (blade 1, node 4), m
         14   -4.790E-01                                 F               0         Y-component position of node 5 (blade 1, node 4), m
         15    1.775E+02                                 F               0         Z-component position of node 5 (blade 1, node 4), m
         16    1.407E+01                                 F               0         X-component position of node 6 (blade 1, node 5), m
         17    4.294E-01                                 F               0         Y-component position of node 6 (blade 1, node 5), m
         18    1.812E+02                                 F               0         Z-component position of node 6 (blade 1, node 5), m
         19    1.479E+01                                 F               0         X-component position of node 7 (blade 1, node 6), m
         20    1.338E+00                                 F               0         Y-component position of node 7 (blade 1, node 6), m
         21    1.849E+02                                 F               0         Z-component position of node 7 (blade 1, node 6), m
         22    1.551E+01                                 F               0         X-component position of node 8 (blade 1, node 7), m
         23    2.246E+00                                 F               0         Y-component position of node 8 (blade 1, node 7), m
         24    1.886E+02                                 F               0         Z-component position of node 8 (blade 1, node 7), m
         25    1.622E+01                                 F               0         X-component position of node 9 (blade 1, node 8), m
         26    3.154E+00                                 F               0         Y-component position of node 9 (blade 1, node 8), m
         27    1.922E+02                                 F               0         Z-component position of node 9 (blade 1, node 8), m
         28    1.694E+01                                 F               0         X-component position of node 10 (blade 1, node 9), m
         29    4.063E+00                                 F               0         Y-component position of node 10 (blade 1, node 9), m
         30    1.959E+02                                 F               0         Z-component position of node 10 (blade 1, node 9), m
         31    1.765E+01                                 F               0         X-component position of node 11 (blade 1, node 10), m
         32    4.971E+00                                 F               0         Y-component position of node 11 (blade 1, node 10), m
         33    1.996E+02                                 F               0         Z-component position of node 11 (blade 1, node 10), m
         34    1.837E+01                                 F               0         X-component position of node 12 (blade 1, node 11), m
         35    5.879E+00                                 F               0         Y-component position of node 12 (blade 1, node 11), m
         36    2.033E+02                                 F               0         Z-component position of node 12 (blade 1, node 11), m
         37    1.908E+01                                 F               0         X-component position of node 13 (blade 1, node 12), m
         38    6.788E+00                                 F               0         Y-component position of node 13 (blade 1, node 12), m
         39    2.070E+02                                 F               0         Z-component position of node 13 (blade 1, node 12), m
         40    1.980E+01                                 F               0         X-component position of node 14 (blade 1, node 13), m
         41    7.696E+00                                 F               0         Y-component position of node 14 (blade 1, node 13), m
         42    2.107E+02                                 F               0         Z-component position of node 14 (blade 1, node 13), m
         43    2.051E+01                                 F               0         X-component position of node 15 (blade 1, node 14), m
         44    8.604E+00                                 F               0         Y-component position of node 15 (blade 1, node 14), m
         45    2.144E+02                                 F               0         Z-component position of node 15 (blade 1, node 14), m
         46    2.123E+01                                 F               0         X-component position of node 16 (blade 1, node 15), m
         47    9.512E+00                                 F               0         Y-component position of node 16 (blade 1, node 15), m
         48    2.181E+02                                 F               0         Z-component position of node 16 (blade 1, node 15), m
         49    2.195E+01                                 F               0         X-component position of node 17 (blade 1, node 16), m
         50    1.042E+01                                 F               0         Y-component position of node 17 (blade 1, node 16), m
         51    2.218E+02                                 F               0         Z-component position of node 17 (blade 1, node 16), m
         52    2.266E+01                                 F               0         X-component position of node 18 (blade 1, node 17), m
         53    1.133E+01                                 F               0         Y-component position of node 18 (blade 1, node 17), m
         54    2.255E+02                                 F               0         Z-component position of node 18 (blade 1, node 17), m
         55    2.338E+01                                 F               0         X-component position of node 19 (blade 1, node 18), m
         56    1.224E+01                                 F               0         Y-component position of node 19 (blade 1, node 18), m
         57    2.292E+02                                 F               0         Z-component position of node 19 (blade 1, node 18), m
         58    2.409E+01                                 F               0         X-component position of node 20 (blade 1, node 19), m
         59    1.315E+01                                 F               0         Y-component position of node 20 (blade 1, node 19), m
         60    2.328E+02                                 F               0         Z-component position of node 20 (blade 1, node 19), m
         61    2.481E+01                                 F               0         X-component position of node 21 (blade 1, node 20), m
         62    1.405E+01                                 F               0         Y-component position of node 21 (blade 1, node 20), m
         63    2.365E+02                                 F               0         Z-component position of node 21 (blade 1, node 20), m
         64    2.552E+01                                 F               0         X-component position of node 22 (blade 1, node 21), m
         65    1.496E+01                                 F               0         Y-component position of node 22 (blade 1, node 21), m
         66    2.402E+02                                 F               0         Z-component position of node 22 (blade 1, node 21), m
         67    2.624E+01                                 F               0         X-component position of node 23 (blade 1, node 22), m
         68    1.587E+01                                 F               0         Y-component position of node 23 (blade 1, node 22), m
         69    2.439E+02                                 F               0         Z-component position of node 23 (blade 1, node 22), m
         70    2.695E+01                                 F               0         X-component position of node 24 (blade 1, node 23), m
         71    1.678E+01                                 F               0         Y-component position of node 24 (blade 1, node 23), m
         72    2.476E+02                                 F               0         Z-component position of node 24 (blade 1, node 23), m
         73    2.767E+01                                 F               0         X-component position of node 25 (blade 1, node 24), m
         74    1.769E+01                                 F               0         Y-component position of node 25 (blade 1, node 24), m
         75    2.513E+02                                 F               0         Z-component position of node 25 (blade 1, node 24), m
         76    2.838E+01                                 F               0         X-component position of node 26 (blade 1, node 25), m
         77    1.860E+01                                 F               0         Y-component position of node 26 (blade 1, node 25), m
         78    2.550E+02                                 F               0         Z-component position of node 26 (blade 1, node 25), m
         79    2.910E+01                                 F               0         X-component position of node 27 (blade 1, node 26), m
         80    1.950E+01                                 F               0         Y-component position of node 27 (blade 1, node 26), m
         81    2.587E+02                                 F               0         Z-component position of node 27 (blade 1, node 26), m
         82    2.982E+01                                 F               0         X-component position of node 28 (blade 1, node 27), m
         83    2.041E+01                                 F               0         Y-component position of node 28 (blade 1, node 27), m
         84    2.624E+02                                 F               0         Z-component position of node 28 (blade 1, node 27), m
         85    3.042E+01                                 F               0         X-component position of node 29 (blade 1, node 28), m
         86    2.118E+01                                 F               0         Y-component position of node 29 (blade 1, node 28), m
         87    2.655E+02                                 F               0         Z-component position of node 29 (blade 1, node 28), m
         88    7.759E+00                                 F               0         X-component position of node 30 (blade 2, node 1), m
         89   -1.258E+01                                 F               0         Y-component position of node 30 (blade 2, node 1), m
         90    1.484E+02                                 F               0         Z-component position of node 30 (blade 2, node 1), m
         91    7.698E+00                                 F               0         X-component position of node 31 (blade 2, node 2), m
         92   -1.386E+01                                 F               0         Y-component position of node 31 (blade 2, node 2), m
         93    1.480E+02                                 F               0         Z-component position of node 31 (blade 2, node 2), m
         94    6.866E+00                                 F               0         X-component position of node 32 (blade 2, node 3), m
         95   -3.127E+01                                 F               0         Y-component position of node 32 (blade 2, node 3), m
         96    1.429E+02                                 F               0         Z-component position of node 32 (blade 2, node 3), m
         97    6.689E+00                                 F               0         X-component position of node 33 (blade 2, node 4), m
         98   -3.498E+01                                 F               0         Y-component position of node 33 (blade 2, node 4), m
         99    1.419E+02                                 F               0         Z-component position of node 33 (blade 2, node 4), m
        100    6.512E+00                                 F               0         X-component position of node 34 (blade 2, node 5), m
        101   -3.869E+01                                 F               0         Y-component position of node 34 (blade 2, node 5), m
        102    1.408E+02                                 F               0         Z-component position of node 34 (blade 2, node 5), m
        103    6.335E+00                                 F               0         X-component position of node 35 (blade 2, node 6), m
        104   -4.240E+01                                 F               0         Y-component position of node 35 (blade 2, node 6), m
        105    1.397E+02                                 F               0         Z-component position of node 35 (blade 2, node 6), m
        106    6.157E+00                                 F               0         X-component position of node 36 (blade 2, node 7), m
        107   -4.611E+01                                 F               0         Y-component position of node 36 (blade 2, node 7), m
        108    1.386E+02                                 F               0         Z-component position of node 36 (blade 2, node 7), m
        109    5.980E+00                                 F               0         X-component position of node 37 (blade 2, node 8), m
        110   -4.982E+01                                 F               0         Y-component position of node 37 (blade 2, node 8), m
        111    1.375E+02                                 F               0         Z-component position of node 37 (blade 2, node 8), m
        112    5.803E+00                                 F               0         X-component position of node 38 (blade 2, node 9), m
        113   -5.353E+01                                 F               0         Y-component position of node 38 (blade 2, node 9), m
        114    1.365E+02                                 F               0         Z-component position of node 38 (blade 2, node 9), m
        115    5.626E+00                                 F               0         X-component position of node 39 (blade 2, node 10), m
        116   -5.724E+01                                 F               0         Y-component position of node 39 (blade 2, node 10), m
        117    1.354E+02                                 F               0         Z-component position of node 39 (blade 2, node 10), m
        118    5.449E+00                                 F               0         X-component position of node 40 (blade 2, node 11), m
        119   -6.095E+01                                 F               0         Y-component position of node 40 (blade 2, node 11), m
        120    1.343E+02                                 F               0         Z-component position of node 40 (blade 2, node 11), m
        121    5.271E+00                                 F               0         X-component position of node 41 (blade 2, node 12), m
        122   -6.466E+01                                 F               0         Y-component position of node 41 (blade 2, node 12), m
        123    1.332E+02                                 F               0         Z-component position of node 41 (blade 2, node 12), m
        124    5.094E+00                                 F               0         X-component position of node 42 (blade 2, node 13), m
        125   -6.837E+01                                 F               0         Y-component position of node 42 (blade 2, node 13), m
        126    1.321E+02                                 F               0         Z-component position of node 42 (blade 2, node 13), m
        127    4.917E+00                                 F               0         X-component position of node 43 (blade 2, node 14), m
        128   -7.208E+01                                 F               0         Y-component position of node 43 (blade 2, node 14), m
        129    1.311E+02                                 F               0         Z-component position of node 43 (blade 2, node 14), m
        130    4.740E+00                                 F               0         X-component position of node 44 (blade 2, node 15), m
        131   -7.579E+01                                 F               0         Y-component position of node 44 (blade 2, node 15), m
        132    1.300E+02                                 F               0         Z-component position of node 44 (blade 2, node 15), m
        133    4.563E+00                                 F               0         X-component position of node 45 (blade 2, node 16), m
        134   -7.950E+01                                 F               0         Y-component position of node 45 (blade 2, node 16), m
        135    1.289E+02                                 F               0         Z-component position of node 45 (blade 2, node 16), m
        136    4.385E+00                                 F               0         X-component position of node 46 (blade 2, node 17), m
        137   -8.321E+01                                 F               0         Y-component position of node 46 (blade 2, node 17), m
        138    1.278E+02                                 F               0         Z-component position of node 46 (blade 2, node 17), m
        139    4.208E+00                                 F               0         X-component position of node 47 (blade 2, node 18), m
        140   -8.692E+01                                 F               0         Y-component position of node 47 (blade 2, node 18), m
        141    1.267E+02                                 F               0         Z-component position of node 47 (blade 2, node 18), m
        142    4.031E+00                                 F               0         X-component position of node 48 (blade 2, node 19), m
        143   -9.063E+01                                 F               0         Y-component position of node 48 (blade 2, node 19), m
        144    1.257E+02                                 F               0         Z-component position of node 48 (blade 2, node 19), m
        145    3.854E+00                                 F               0         X-component position of node 49 (blade 2, node 20), m
        146   -9.434E+01                                 F               0         Y-component position of node 49 (blade 2, node 20), m
        147    1.246E+02                                 F               0         Z-component position of node 49 (blade 2, node 20), m
        148    3.677E+00                                 F               0         X-component position of node 50 (blade 2, node 21), m
        149   -9.805E+01                                 F               0         Y-component position of node 50 (blade 2, node 21), m
        150    1.235E+02                                 F               0         Z-component position of node 50 (blade 2, node 21), m
        151    3.499E+00                                 F               0         X-component position of node 51 (blade 2, node 22), m
        152   -1.018E+02                                 F               0         Y-component position of node 51 (blade 2, node 22), m
        153    1.224E+02                                 F               0         Z-component position of node 51 (blade 2, node 22), m
        154    3.322E+00                                 F               0         X-component position of node 52 (blade 2, node 23), m
        155   -1.055E+02                                 F               0         Y-component position of node 52 (blade 2, node 23), m
        156    1.213E+02                                 F               0         Z-component position of node 52 (blade 2, node 23), m
        157    3.145E+00                                 F               0         X-component position of node 53 (blade 2, node 24), m
        158   -1.092E+02                                 F               0         Y-component position of node 53 (blade 2, node 24), m
        159    1.203E+02                                 F               0         Z-component position of node 53 (blade 2, node 24), m
        160    2.968E+00                                 F               0         X-component position of node 54 (blade 2, node 25), m
        161   -1.129E+02                                 F               0         Y-component position of node 54 (blade 2, node 25), m
        162    1.192E+02                                 F               0         Z-component position of node 54 (blade 2, node 25), m
        163    2.790E+00                                 F               0         X-component position of node 55 (blade 2, node 26), m
        164   -1.166E+02                                 F               0         Y-component position of node 55 (blade 2, node 26), m
        165    1.181E+02                                 F               0         Z-component position of node 55 (blade 2, node 26), m
        166    2.613E+00                                 F               0         X-component position of node 56 (blade 2, node 27), m
        167   -1.203E+02                                 F               0         Y-component position of node 56 (blade 2, node 27), m
        168    1.170E+02                                 F               0         Z-component position of node 56 (blade 2, node 27), m
        169    2.463E+00                                 F               0         X-component position of node 57 (blade 2, node 28), m
        170   -1.235E+02                                 F               0         Y-component position of node 57 (blade 2, node 28), m
        171    1.161E+02                                 F               0         Z-component position of node 57 (blade 2, node 28), m
        172    7.242E+00                                 F               0         X-component position of node 58 (blade 3, node 1), m
        173   -3.252E+00                                 F               0         Y-component position of node 58 (blade 3, node 1), m
        174    1.462E+02                                 F               0         Z-component position of node 58 (blade 3, node 1), m
        175    7.056E+00                                 F               0         X-component position of node 59 (blade 3, node 2), m
        176   -2.285E+00                                 F               0         Y-component position of node 59 (blade 3, node 2), m
        177    1.453E+02                                 F               0         Z-component position of node 59 (blade 3, node 2), m
        178    4.530E+00                                 F               0         X-component position of node 60 (blade 3, node 3), m
        179    1.086E+01                                 F               0         Y-component position of node 60 (blade 3, node 3), m
        180    1.330E+02                                 F               0         Z-component position of node 60 (blade 3, node 3), m
        181    3.991E+00                                 F               0         X-component position of node 61 (blade 3, node 4), m
        182    1.367E+01                                 F               0         Y-component position of node 61 (blade 3, node 4), m
        183    1.304E+02                                 F               0         Z-component position of node 61 (blade 3, node 4), m
        184    3.453E+00                                 F               0         X-component position of node 62 (blade 3, node 5), m
        185    1.647E+01                                 F               0         Y-component position of node 62 (blade 3, node 5), m
        186    1.278E+02                                 F               0         Z-component position of node 62 (blade 3, node 5), m
        187    2.915E+00                                 F               0         X-component position of node 63 (blade 3, node 6), m
        188    1.927E+01                                 F               0         Y-component position of node 63 (blade 3, node 6), m
        189    1.252E+02                                 F               0         Z-component position of node 63 (blade 3, node 6), m
        190    2.376E+00                                 F               0         X-component position of node 64 (blade 3, node 7), m
        191    2.207E+01                                 F               0         Y-component position of node 64 (blade 3, node 7), m
        192    1.226E+02                                 F               0         Z-component position of node 64 (blade 3, node 7), m
        193    1.838E+00                                 F               0         X-component position of node 65 (blade 3, node 8), m
        194    2.487E+01                                 F               0         Y-component position of node 65 (blade 3, node 8), m
        195    1.200E+02                                 F               0         Z-component position of node 65 (blade 3, node 8), m
        196    1.300E+00                                 F               0         X-component position of node 66 (blade 3, node 9), m
        197    2.767E+01                                 F               0         Y-component position of node 66 (blade 3, node 9), m
        198    1.173E+02                                 F               0         Z-component position of node 66 (blade 3, node 9), m
        199    7.612E-01                                 F               0         X-component position of node 67 (blade 3, node 10), m
        200    3.047E+01                                 F               0         Y-component position of node 67 (blade 3, node 10), m
        201    1.147E+02                                 F               0         Z-component position of node 67 (blade 3, node 10), m
        202    2.229E-01                                 F               0         X-component position of node 68 (blade 3, node 11), m
        203    3.328E+01                                 F               0         Y-component position of node 68 (blade 3, node 11), m
        204    1.121E+02                                 F               0         Z-component position of node 68 (blade 3, node 11), m
        205   -3.155E-01                                 F               0         X-component position of node 69 (blade 3, node 12), m
        206    3.608E+01                                 F               0         Y-component position of node 69 (blade 3, node 12), m
        207    1.095E+02                                 F               0         Z-component position of node 69 (blade 3, node 12), m
        208   -8.538E-01                                 F               0         X-component position of node 70 (blade 3, node 13), m
        209    3.888E+01                                 F               0         Y-component position of node 70 (blade 3, node 13), m
        210    1.069E+02                                 F               0         Z-component position of node 70 (blade 3, node 13), m
        211   -1.392E+00                                 F               0         X-component position of node 71 (blade 3, node 14), m