
Linearized model: Predictions were generated on 20-Feb-2024 at 08:38:00 using OpenFAST, compiled as a 64-bit application using single precision at commit v3.5.1
 linked with  NWTC Subroutine Library; ElastoDyn; InflowWind; AeroDyn; ServoDyn; HydroDyn; MAP++ (<1.20.10>, <Oct-20-2023>)

Description from the FAST input file: CCT-9 Campign 4 model. Input files to be run with OpenFAST 3.5.0. GitHub branch from Lu Wang (https://github.com/luwang00/openfast/tree/dev) compiled on March 7, 2023.

Simulation information:
   Simulation time:                   889.9500 s
   Rotor Speed:                         0.7917 rad/s
   Azimuth:                             0.3566 rad
   Wind Speed:                         24.0000 m/s
   Number of continuous states:        18
   Number of discrete states:           0
   Number of constraint states:         0
   Number of inputs:                    6
   Number of outputs:                  25
   Jacobians included in this file?    No

Order of continuous states:
   Row/Column Operating Point                                                   Rotating Frame? Derivative Order Description
   ---------- ---------------                                                   --------------- ---------------- -----------
          1     6.83732414246E+000                                                     F               2         Platform horizontal surge translation DOF (internal DOF index = DOF_Sg), m
          2    -8.19519400597E-001                                                     F               2         Platform horizontal sway translation DOF (internal DOF index = DOF_Sw), m
          3    -1.33192673326E-001                                                     F               2         Platform vertical heave translation DOF (internal DOF index = DOF_Hv), m
          4     5.40612861514E-002                                                     F               2         Platform roll tilt rotation DOF (internal DOF index = DOF_R), rad
          5     9.51155200601E-002                                                     F               2         Platform pitch tilt rotation DOF (internal DOF index = DOF_P), rad
          6    -9.22687351704E-003                                                     F               2         Platform yaw rotation DOF (internal DOF index = DOF_Y), rad
          7     5.70476293564E-001                                                     F               2         1st tower fore-aft bending mode DOF (internal DOF index = DOF_TFA1), m
          8     2.69428461790E-001                                                     F               2         1st tower side-to-side bending mode DOF (internal DOF index = DOF_TSS1), m
          9     5.06896209717E+000                                                     F               2         Variable speed generator DOF (internal DOF index = DOF_GeAz), rad
         10    -2.06207926385E-003                                                     F               2         First time derivative of Platform horizontal surge translation DOF (internal DOF index = DOF_Sg), m/s
         11    -1.14034186117E-003                                                     F               2         First time derivative of Platform horizontal sway translation DOF (internal DOF index = DOF_Sw), m/s
         12     1.29126186948E-003                                                     F               2         First time derivative of Platform vertical heave translation DOF (internal DOF index = DOF_Hv), m/s
         13     1.13575857540E-004                                                     F               2         First time derivative of Platform roll tilt rotation DOF (internal DOF index = DOF_R), rad/s
         14    -2.68013536697E-005                                                     F               2         First time derivative of Platform pitch tilt rotation DOF (internal DOF index = DOF_P), rad/s
         15    -8.14888244349E-006                                                     F               2         First time derivative of Platform yaw rotation DOF (internal DOF index = DOF_Y), rad/s
         16     4.34254156426E-003                                                     F               2         First time derivative of 1st tower fore-aft bending mode DOF (internal DOF index = DOF_TFA1), m/s
         17    -1.86011102051E-002                                                     F               2         First time derivative of 1st tower side-to-side bending mode DOF (internal DOF index = DOF_TSS1), m/s
         18     7.91709482670E-001                                                     F               2         First time derivative of Variable speed generator DOF (internal DOF index = DOF_GeAz), rad/s

Order of continuous state derivatives:
   Row/Column Operating Point                                                   Rotating Frame? Derivative Order Description
   ---------- ---------------                                                   --------------- ---------------- -----------
          1    -2.06207926385E-003                                                     F               2         First time derivative of Platform horizontal surge translation DOF (internal DOF index = DOF_Sg), m/s
          2    -1.14034186117E-003                                                     F               2         First time derivative of Platform horizontal sway translation DOF (internal DOF index = DOF_Sw), m/s
          3     1.29126186948E-003                                                     F               2         First time derivative of Platform vertical heave translation DOF (internal DOF index = DOF_Hv), m/s
          4     1.13575857540E-004                                                     F               2         First time derivative of Platform roll tilt rotation DOF (internal DOF index = DOF_R), rad/s
          5    -2.68013536697E-005                                                     F               2         First time derivative of Platform pitch tilt rotation DOF (internal DOF index = DOF_P), rad/s
          6    -8.14888244349E-006                                                     F               2         First time derivative of Platform yaw rotation DOF (internal DOF index = DOF_Y), rad/s
          7     4.34254156426E-003                                                     F               2         First time derivative of 1st tower fore-aft bending mode DOF (internal DOF index = DOF_TFA1), m/s
          8    -1.86011102051E-002                                                     F               2         First time derivative of 1st tower side-to-side bending mode DOF (internal DOF index = DOF_TSS1), m/s
          9     7.91709482670E-001                                                     F               2         First time derivative of Variable speed generator DOF (internal DOF index = DOF_GeAz), rad/s
         10     9.96681675315E-003                                                     F               2         First time derivative of First time derivative of Platform horizontal surge translation DOF (internal DOF index = DOF_Sg), m/s/s
         11    -1.40018761158E-003                                                     F               2         First time derivative of First time derivative of Platform horizontal sway translation DOF (internal DOF index = DOF_Sw), m/s/s
         12     6.96095579769E-004                                                     F               2         First time derivative of First time derivative of Platform vertical heave translation DOF (internal DOF index = DOF_Hv), m/s/s
         13     1.02165242424E-004                                                     F               2         First time derivative of First time derivative of Platform roll tilt rotation DOF (internal DOF index = DOF_R), rad/s/s
         14     5.57678693440E-004                                                     F               2         First time derivative of First time derivative of Platform pitch tilt rotation DOF (internal DOF index = DOF_P), rad/s/s
         15     4.55007611890E-005                                                     F               2         First time derivative of First time derivative of Platform yaw rotation DOF (internal DOF index = DOF_Y), rad/s/s
         16    -1.24934963882E-001                                                     F               2         First time derivative of First time derivative of 1st tower fore-aft bending mode DOF (internal DOF index = DOF_TFA1), m/s/s
         17    -2.10727360100E-002                                                     F               2         First time derivative of First time derivative of 1st tower side-to-side bending mode DOF (internal DOF index = DOF_TSS1), m/s/s
         18     7.61776464060E-004                                                     F               2         First time derivative of First time derivative of Variable speed generator DOF (internal DOF index = DOF_GeAz), rad/s/s

Order of inputs:
     Column   Operating Point                                                   Rotating Frame? Derivative Order Description
   ---------- ---------------                                                   --------------- ---------------- -----------
          1     2.94772028923E-001                                                     T               0         Blade 1 pitch command, rad
          2     2.94772028923E-001                                                     T               0         Blade 2 pitch command, rad
          3     2.94772028923E-001                                                     T               0         Blade 3 pitch command, rad
          4     0.00000000000E+000                                                     F               0         Yaw moment, Nm
          5     1.86691280000E+007                                                     F               0         Generator torque, Nm
          6     2.94772028923E-001                                                     F               0         Extended input: collective blade-pitch command, rad

Order of outputs:
        Row   Operating Point                                                   Rotating Frame? Derivative Order Description
   ---------- ---------------                                                   --------------- ---------------- -----------
          1     7.56026840210E+000                                                     F               0         GenSpeed, (rpm)
          2     7.56026840210E+000                                                     F               0         RotSpeed, (rpm)
          3     1.86691289062E+004                                                     F               0         RotTorq, (kN-m)
          4     2.58411547852E+003                                                     F               0         RotThrust, (kN)
          5     1.25046625000E+005                                                     F               0         TwrBsMxt, (kN-m)
          6     3.08392125000E+005                                                     F               0         TwrBsMyt, (kN-m)
          7    -6.04720019531E+003                                                     F               0         TwrBsMzt, (kN-m)
          8     3.07909838867E+003                                                     F               0         TwrBsFxt, (kN)
          9    -9.66090698242E+002                                                     F               0         TwrBsFyt, (kN)
         10    -1.80434082031E+004                                                     F               0         TwrBsFzt, (kN)
         11     6.83732414246E+000                                                     F               0         PtfmSurge, (m)
         12    -8.19519400597E-001                                                     F               0         PtfmSway, (m)
         13    -1.33192673326E-001                                                     F               0         PtfmHeave, (m)
         14     3.09748339653E+000                                                     F               0         PtfmRoll, (deg)
         15     5.44971799850E+000                                                     F               0         PtfmPitch, (deg)
         16    -5.28660893440E-001                                                     F               0         PtfmYaw, (deg)
         17     5.70476293564E-001                                                     F               0         TTDspFA, (m)
         18    -2.69428461790E-001                                                     F               0         TTDspSS, (m)
         19     9.86500363797E-003                                                     F               0         PtfmTAxt, (m/s^2)
         20    -1.24418758787E-003                                                     F               0         PtfmTAyt, (m/s^2)
         21     1.70769228134E-003                                                     F               0         PtfmTAzt, (m/s^2)
         22     5.36837289110E-003                                                     F               0         PtfmRAxt, (deg/s^2)
         23     3.21125760674E-002                                                     F               0         PtfmRAyt, (deg/s^2)
         24     1.41256011557E-003                                                     F               0         PtfmRAzt, (deg/s^2)
         25    -3.55532690883E-002                                                     F               0         YawBrTAxp, (m/s^2)


Linearized state matrices:

A: 18 x 18
     0.00000000000E+000   0.00000000000E+000   0.00000000000E+000   0.00000000000E+000   0.00000000000E+000   0.00000000000E+000   0.00000000000E+000   0.00000000000E+000   0.00000000000E+000   1.00000000000E+000   0.00000000000E+000   0.00000000000E+000   0.00000000000E+000   0.00000000000E+000   0.00000000000E+000   0.00000000000E+000   0.00000000000E+000   0.00000000000E+000
     0.00000000000E+000   0.00000000000E+000   0.00000000000E+000   0.00000000000E+000   0.00000000000E+000   0.00000000000E+000   0.00000000000E+000   0.00000000000E+000   0.00000000000E+000   0.00000000000E+000   1.00000000000E+000   0.00000000000E+000   0.00000000000E+000   0.00000000000E+000   0.00000000000E+000   0.00000000000E+000   0.00000000000E+000   0.00000000000E+000
     0.00000000000E+000   0.00000000000E+000   0.00000000000E+000   0.00000000000E+000   0.00000000000E+000   0.00000000000E+000   0.00000000000E+000   0.00000000000E+000   0.00000000000E+000   0.00000000000E+000   0.00000000000E+000   1.00000000000E+000   0.00000000000E+000   0.00000000000E+000   0.00000000000E+000   0.00000000000E+000   0.00000000000E+000   0.00000000000E+000
     0.00000000000E+000   0.00000000000E+000   0.00000000000E+000   0.00000000000E+000   0.00000000000E+000   0.00000000000E+000   0.00000000000E+000   0.00000000000E+000   0.00000000000E+000   0.00000000000E+000   0.00000000000E+000   0.00000000000E+000   1.00000000000E+000   0.00000000000E+000   0.00000000000E+000   0.00000000000E+000   0.00000000000E+000   0.00000000000E+000
     0.00000000000E+000   0.00000000000E+000   0.00000000000E+000   0.00000000000E+000   0.00000000000E+000   0.00000000000E+000   0.00000000000E+000   0.00000000000E+000   0.00000000000E+000   0.00000000000E+000   0.00000000000E+000   0.00000000000E+000   0.00000000000E+000   1.00000000000E+000   0.00000000000E+000   0.00000000000E+000   0.00000000000E+000   0.00000000000E+000
     0.00000000000E+000   0.00000000000E+000   0.00000000000E+000   0.00000000000E+000   0.00000000000E+000   0.00000000000E+000   0.00000000000E+000   0.00000000000E+000   0.00000000000E+000   0.00000000000E+000   0.00000000000E+000   0.00000000000E+000   0.00000000000E+000   0.00000000000E+000   1.00000000000E+000   0.00000000000E+000   0.00000000000E+000   0.00000000000E+000
     0.00000000000E+000   0.00000000000E+000   0.00000000000E+000   0.00000000000E+000   0.00000000000E+000   0.00000000000E+000   0.00000000000E+000   0.00000000000E+000   0.00000000000E+000   0.00000000000E+000   0.00000000000E+000   0.00000000000E+000   0.00000000000E+000   0.00000000000E+000   0.00000000000E+000   1.00000000000E+000   0.00000000000E+000   0.00000000000E+000
     0.00000000000E+000   0.00000000000E+000   0.00000000000E+000   0.00000000000E+000   0.00000000000E+000   0.00000000000E+000   0.00000000000E+000   0.00000000000E+000   0.00000000000E+000   0.00000000000E+000   0.00000000000E+000   0.00000000000E+000   0.00000000000E+000   0.00000000000E+000   0.00000000000E+000   0.00000000000E+000   1.00000000000E+000   0.00000000000E+000
     0.00000000000E+000   0.00000000000E+000   0.00000000000E+000   0.00000000000E+000   0.00000000000E+000   0.00000000000E+000   0.00000000000E+000   0.00000000000E+000   0.00000000000E+000   0.00000000000E+000   0.00000000000E+000   0.00000000000E+000   0.00000000000E+000   0.00000000000E+000   0.00000000000E+000   0.00000000000E+000   0.00000000000E+000   1.00000000000E+000
     0.00000000000E+000   0.00000000000E+000   0.00000000000E+000   2.34084392762E-002  -3.04010252550E+000   2.10294211503E-001   7.23071140757E-001  -8.22897573696E-003  -9.79692481615E-003   0.00000000000E+000   0.00000000000E+000   0.00000000000E+000   1.48943976933E-001  -7.12168005183E-002   7.13512954002E-001   2.47108261051E-003   9.70794778575E-004  -1.38736612826E-004
     0.00000000000E+000   0.00000000000E+000   0.00000000000E+000   3.47441245562E+000   1.68656902497E-003   5.04513913261E-001  -7.15549522309E-003  -8.28760526352E-001   8.29949956934E-005   0.00000000000E+000   0.00000000000E+000   0.00000000000E+000  -9.07341698038E-004   5.62111469294E-002  -3.77737532179E-003   6.61962580065E-004  -3.28647285430E-003  -1.78486641377E-004
     0.00000000000E+000   0.00000000000E+000   0.00000000000E+000   6.30509677943E-002   1.11284824718E-001   1.51372591572E-003  -2.94856172811E-002  -1.59175962322E-002   7.02211365250E-004   0.00000000000E+000   0.00000000000E+000   0.00000000000E+000  -9.06673764063E-003   6.31381960962E-003  -3.19120656372E-002  -7.16117946992E-005  -1.09382940525E-004   6.80284270198E-004
     0.00000000000E+000   0.00000000000E+000   0.00000000000E+000  -2.11165598238E-001  -5.83055664266E-004  -3.11591922343E-002   5.06895946453E-004   4.96501331061E-002  -7.59070767750E-006   0.00000000000E+000   0.00000000000E+000   0.00000000000E+000   9.12958141125E-005   7.74215951695E-004   3.98669473270E-004   1.18602349497E-005   1.95563230269E-004   6.23225861364E-006
     0.00000000000E+000   0.00000000000E+000   0.00000000000E+000   9.40184594692E-004  -1.83429331544E-001   1.47580189490E-002   4.27736097877E-002  -4.36941650513E-004  -4.39231666720E-004   0.00000000000E+000   0.00000000000E+000   0.00000000000E+000   6.66332378119E-003  -4.50113461764E-003   3.18402733765E-002   1.34380560030E-004   4.32858052443E-005  -8.66850912989E-006
     0.00000000000E+000   0.00000000000E+000   0.00000000000E+000   2.93734958727E-002  -9.03093770077E-003   1.77760843859E-003   2.11461270742E-003  -2.62667588829E-003  -5.78014798458E-005   0.00000000000E+000   0.00000000000E+000   0.00000000000E+000   9.05099888409E-004   5.16934138135E-002   4.31103079063E-003   6.48698337129E-004  -9.43074960482E-006  -7.69147296569E-006
     0.00000000000E+000   0.00000000000E+000   0.00000000000E+000   7.61160495661E-003   3.76673700876E+001  -2.48044809273E+000  -8.97072305581E+000  -1.08715622859E-003   1.25130500331E-001   0.00000000000E+000   0.00000000000E+000   0.00000000000E+000  -1.89212960817E+000   5.03223419157E-001  -9.03368703922E+000  -3.55058403573E-002  -1.27154234352E-002   3.63075530772E-003
     0.00000000000E+000   0.00000000000E+000   0.00000000000E+000   4.30674023488E+001  -3.43269729687E-001   6.12889740476E+000  -3.65769937791E-003  -1.02665695229E+001   3.56062161952E-003   0.00000000000E+000   0.00000000000E+000   0.00000000000E+000   2.34436959638E-004   9.21232049672E-001   5.81465949081E-002   1.13777324275E-002  -4.07350351299E-002  -1.06928288393E-002
     0.00000000000E+000   0.00000000000E+000   0.00000000000E+000  -3.14999989022E-001   1.31961348027E-002  -4.51057406927E-002   1.72849243047E-004   7.66579609668E-002   8.60758795299E-005   0.00000000000E+000   0.00000000000E+000   0.00000000000E+000   1.17623063719E-004  -1.43464301185E-003  -1.03197397033E-004  -1.79003667896E-005   3.06124799193E-004   1.23272804001E-004
B: 18 x 6
     0.00000000000E+000   0.00000000000E+000   0.00000000000E+000   0.00000000000E+000   0.00000000000E+000   0.00000000000E+000
     0.00000000000E+000   0.00000000000E+000   0.00000000000E+000   0.00000000000E+000   0.00000000000E+000   0.00000000000E+000
     0.00000000000E+000   0.00000000000E+000   0.00000000000E+000   0.00000000000E+000   0.00000000000E+000   0.00000000000E+000
     0.00000000000E+000   0.00000000000E+000   0.00000000000E+000   0.00000000000E+000   0.00000000000E+000   0.00000000000E+000
     0.00000000000E+000   0.00000000000E+000   0.00000000000E+000   0.00000000000E+000   0.00000000000E+000   0.00000000000E+000
     0.00000000000E+000   0.00000000000E+000   0.00000000000E+000   0.00000000000E+000   0.00000000000E+000   0.00000000000E+000
     0.00000000000E+000   0.00000000000E+000   0.00000000000E+000   0.00000000000E+000   0.00000000000E+000   0.00000000000E+000
     0.00000000000E+000   0.00000000000E+000   0.00000000000E+000   0.00000000000E+000   0.00000000000E+000   0.00000000000E+000
     0.00000000000E+000   0.00000000000E+000   0.00000000000E+000   0.00000000000E+000   0.00000000000E+000   0.00000000000E+000
     0.00000000000E+000   0.00000000000E+000   0.00000000000E+000   0.00000000000E+000   2.35836116372E-011   0.00000000000E+000
     0.00000000000E+000   0.00000000000E+000   0.00000000000E+000   0.00000000000E+000   1.56583194182E-009   0.00000000000E+000
     0.00000000000E+000   0.00000000000E+000   0.00000000000E+000   0.00000000000E+000   4.27475681950E-011   0.00000000000E+000
     0.00000000000E+000   0.00000000000E+000   0.00000000000E+000   0.00000000000E+000  -7.41965928971E-011   0.00000000000E+000
     0.00000000000E+000   0.00000000000E+000   0.00000000000E+000   0.00000000000E+000   1.30513916116E-012   0.00000000000E+000
     0.00000000000E+000   0.00000000000E+000   0.00000000000E+000   0.00000000000E+000  -9.33104555551E-012   0.00000000000E+000
     0.00000000000E+000   0.00000000000E+000   0.00000000000E+000   0.00000000000E+000   1.20114093491E-011   0.00000000000E+000
     0.00000000000E+000   0.00000000000E+000   0.00000000000E+000   0.00000000000E+000   1.97350499425E-008   0.00000000000E+000
     0.00000000000E+000   0.00000000000E+000   0.00000000000E+000   0.00000000000E+000  -1.66447906448E-009   0.00000000000E+000
C: 25 x 18
     0.00000000000E+000   0.00000000000E+000   0.00000000000E+000   0.00000000000E+000   0.00000000000E+000   0.00000000000E+000   0.00000000000E+000   0.00000000000E+000   0.00000000000E+000   0.00000000000E+000   0.00000000000E+000   0.00000000000E+000   0.00000000000E+000   0.00000000000E+000   0.00000000000E+000   0.00000000000E+000   0.00000000000E+000   9.54930113897E+000
     0.00000000000E+000   0.00000000000E+000   0.00000000000E+000   0.00000000000E+000   0.00000000000E+000   0.00000000000E+000   0.00000000000E+000   0.00000000000E+000   0.00000000000E+000   0.00000000000E+000   0.00000000000E+000   0.00000000000E+000   0.00000000000E+000   0.00000000000E+000   0.00000000000E+000   0.00000000000E+000   0.00000000000E+000   9.54930113897E+000
     0.00000000000E+000   0.00000000000E+000   0.00000000000E+000   0.00000000000E+000   2.79764548404E-002  -8.39293645211E-002   0.00000000000E+000   4.52876635360E-002  -2.79764548404E-002   0.00000000000E+000   0.00000000000E+000   0.00000000000E+000  -2.79764548404E-002  -1.11905819361E-001   2.79764548404E-002   0.00000000000E+000   0.00000000000E+000  -2.79764548404E-002
     0.00000000000E+000   0.00000000000E+000   0.00000000000E+000  -6.51956309486E+001  -6.42465297182E+002   5.86701228571E+001   1.87499135428E+003   2.66065023274E+000  -4.09155652040E+001   0.00000000000E+000   0.00000000000E+000   0.00000000000E+000   6.14712653980E+002  -1.71611071048E+002   2.94051074774E+003   7.13563748588E+000   4.14948217148E+000  -1.58066969848E+000
     0.00000000000E+000   0.00000000000E+000   0.00000000000E+000   1.68141962671E+005  -1.86938671243E+003   1.62944944514E+004   3.68641581183E+001   4.61243259472E+005   6.15482006488E+000   0.00000000000E+000   0.00000000000E+000   0.00000000000E+000  -2.80324077501E+002  -2.64752382736E+004  -1.51251905449E+003  -3.27067506057E+002   1.80081865284E+003   3.78241669442E+001
     0.00000000000E+000   0.00000000000E+000   0.00000000000E+000  -1.14099173421E+003   2.04150681508E+005  -7.67002485904E+003   4.50037642308E+005   6.26781263338E+001  -3.20050643374E+003   0.00000000000E+000   0.00000000000E+000   0.00000000000E+000   4.85550397744E+004  -1.26301383964E+004   2.32077002541E+005   1.75897285174E+003   3.26071177459E+002  -6.89339847267E+001
     0.00000000000E+000   0.00000000000E+000   0.00000000000E+000  -2.65244908224E+004   1.06387813350E+004   5.03460784250E+003   8.19027395048E+001   1.85727595250E+004  -3.80556721080E+002   0.00000000000E+000   0.00000000000E+000   0.00000000000E+000   5.99315112647E+003   5.02178035820E+005   2.86426791418E+004   6.21071055062E+003   6.28705989038E+001  -6.56327630555E+001
     0.00000000000E+000   0.00000000000E+000   0.00000000000E+000  -2.40003011962E+001   7.68228204331E+003  -3.23054615212E+002   2.63886686658E+003   1.61903397141E+000  -7.23611004446E+001   0.00000000000E+000   0.00000000000E+000   0.00000000000E+000   1.09759325864E+003  -2.80484942116E+002   5.24566221782E+003   1.08945135594E+001   7.37905867739E+000  -1.57017852792E+000
     0.00000000000E+000   0.00000000000E+000   0.00000000000E+000  -7.05012781827E+003   6.83578446098E+001  -7.14265994265E+002  -1.17040305451E+000  -2.85495766076E+003  -9.17977424450E-002   0.00000000000E+000   0.00000000000E+000   0.00000000000E+000   6.17405387758E+000   5.98521280741E+002   3.40525911260E+001   7.39391869199E+000  -1.16049637811E+001  -9.93164146833E-001
     0.00000000000E+000   0.00000000000E+000   0.00000000000E+000   1.26724947490E+003   1.98263540163E+003   1.36301287982E+002   2.43194753188E+002  -7.25508369846E+001   6.15482006488E-001   0.00000000000E+000   0.00000000000E+000   0.00000000000E+000   7.69072743562E+001  -9.37211237152E+000   3.01110583447E+002   1.08690392486E+000   1.35862990608E-001   1.27013104975E+001
     1.00000006286E+000   0.00000000000E+000   0.00000000000E+000   0.00000000000E+000   0.00000000000E+000   0.00000000000E+000   0.00000000000E+000   0.00000000000E+000   0.00000000000E+000   0.00000000000E+000   0.00000000000E+000   0.00000000000E+000   0.00000000000E+000   0.00000000000E+000   0.00000000000E+000   0.00000000000E+000   0.00000000000E+000   0.00000000000E+000
     0.00000000000E+000   1.00000006286E+000   0.00000000000E+000   0.00000000000E+000   0.00000000000E+000   0.00000000000E+000   0.00000000000E+000   0.00000000000E+000   0.00000000000E+000   0.00000000000E+000   0.00000000000E+000   0.00000000000E+000   0.00000000000E+000   0.00000000000E+000   0.00000000000E+000   0.00000000000E+000   0.00000000000E+000   0.00000000000E+000
     0.00000000000E+000   0.00000000000E+000   1.00000000269E+000   0.00000000000E+000   0.00000000000E+000   0.00000000000E+000   0.00000000000E+000   0.00000000000E+000   0.00000000000E+000   0.00000000000E+000   0.00000000000E+000   0.00000000000E+000   0.00000000000E+000   0.00000000000E+000   0.00000000000E+000   0.00000000000E+000   0.00000000000E+000   0.00000000000E+000
     0.00000000000E+000   0.00000000000E+000   0.00000000000E+000   5.72957726829E+001   0.00000000000E+000   0.00000000000E+000   0.00000000000E+000   0.00000000000E+000   0.00000000000E+000   0.00000000000E+000   0.00000000000E+000   0.00000000000E+000   0.00000000000E+000   0.00000000000E+000   0.00000000000E+000   0.00000000000E+000   0.00000000000E+000   0.00000000000E+000
     0.00000000000E+000   0.00000000000E+000   0.00000000000E+000   0.00000000000E+000   5.72957726829E+001   0.00000000000E+000   0.00000000000E+000   0.00000000000E+000   0.00000000000E+000   0.00000000000E+000   0.00000000000E+000   0.00000000000E+000   0.00000000000E+000   0.00000000000E+000   0.00000000000E+000   0.00000000000E+000   0.00000000000E+000   0.00000000000E+000
     0.00000000000E+000   0.00000000000E+000   0.00000000000E+000   0.00000000000E+000   0.00000000000E+000   5.72957760980E+001   0.00000000000E+000   0.00000000000E+000   0.00000000000E+000   0.00000000000E+000   0.00000000000E+000   0.00000000000E+000   0.00000000000E+000   0.00000000000E+000   0.00000000000E+000   0.00000000000E+000   0.00000000000E+000   0.00000000000E+000
     0.00000000000E+000   0.00000000000E+000   0.00000000000E+000   0.00000000000E+000   0.00000000000E+000   0.00000000000E+000   1.00000006624E+000   0.00000000000E+000   0.00000000000E+000   0.00000000000E+000   0.00000000000E+000   0.00000000000E+000   0.00000000000E+000   0.00000000000E+000   0.00000000000E+000   0.00000000000E+000   0.00000000000E+000   0.00000000000E+000
     0.00000000000E+000   0.00000000000E+000   0.00000000000E+000   0.00000000000E+000   0.00000000000E+000   0.00000000000E+000   0.00000000000E+000  -1.00000006624E+000   0.00000000000E+000   0.00000000000E+000   0.00000000000E+000   0.00000000000E+000   0.00000000000E+000   0.00000000000E+000   0.00000000000E+000   0.00000000000E+000   0.00000000000E+000   0.00000000000E+000