
Linearized model: Predictions were generated on 08-Jan-2024 at 09:43:14 using OpenFAST, compiled as a 64-bit application using single precision at commit v3.5.1
 linked with  NWTC Subroutine Library; ElastoDyn; InflowWind; AeroDyn; ServoDyn; HydroDyn; MoorDyn (v2.0.0, 2023-09-18)

Description from the FAST input file: CCT-9 Campign 4 model. Input files to be run with OpenFAST 3.5.0. GitHub branch from Lu Wang (https://github.com/luwang00/openfast/tree/dev) compiled on March 7, 2023.

Simulation information:
   Simulation time:                  1007.2250 s
   Rotor Speed:                         0.7078 rad/s
   Azimuth:                             4.2991 rad
   Wind Speed:                          8.0000 m/s
   Number of continuous states:        22
   Number of discrete states:           0
   Number of constraint states:         0
   Number of inputs:                 1890
   Number of outputs:                  38
   Jacobians included in this file?    No

Order of continuous states:
   Row/Column Operating Point                     Rotating Frame? Derivative Order Description
   ---------- ---------------                     --------------- ---------------- -----------
          1    5.713E+00                                 F               2         Platform horizontal surge translation DOF (internal DOF index = DOF_Sg), m
          2   -4.780E-01                                 F               2         Platform horizontal sway translation DOF (internal DOF index = DOF_Sw), m
          3   -8.302E-02                                 F               2         Platform vertical heave translation DOF (internal DOF index = DOF_Hv), m
          4    4.391E-02                                 F               2         Platform roll tilt rotation DOF (internal DOF index = DOF_R), rad
          5    8.416E-02                                 F               2         Platform pitch tilt rotation DOF (internal DOF index = DOF_P), rad
          6    2.296E-03                                 F               2         Platform yaw rotation DOF (internal DOF index = DOF_Y), rad
          7    4.616E-01                                 F               2         1st tower fore-aft bending mode DOF (internal DOF index = DOF_TFA1), m
          8    1.711E-01                                 F               2         1st tower side-to-side bending mode DOF (internal DOF index = DOF_TSS1), m
          9    1.461E-03                                 F               2         2nd tower fore-aft bending mode DOF (internal DOF index = DOF_TFA2), m
         10    7.553E-05                                 F               2         2nd tower side-to-side bending mode DOF (internal DOF index = DOF_TSS2), m
         11    2.728E+00                                 F               2         Variable speed generator DOF (internal DOF index = DOF_GeAz), rad
         12   -1.693E-04                                 F               2         First time derivative of Platform horizontal surge translation DOF (internal DOF index = DOF_Sg), m/s
         13   -8.625E-04                                 F               2         First time derivative of Platform horizontal sway translation DOF (internal DOF index = DOF_Sw), m/s
         14   -1.602E-03                                 F               2         First time derivative of Platform vertical heave translation DOF (internal DOF index = DOF_Hv), m/s
         15    9.471E-06                                 F               2         First time derivative of Platform roll tilt rotation DOF (internal DOF index = DOF_R), rad/s
         16   -4.081E-07                                 F               2         First time derivative of Platform pitch tilt rotation DOF (internal DOF index = DOF_P), rad/s
         17    2.412E-06                                 F               2         First time derivative of Platform yaw rotation DOF (internal DOF index = DOF_Y), rad/s
         18   -5.464E-04                                 F               2         First time derivative of 1st tower fore-aft bending mode DOF (internal DOF index = DOF_TFA1), m/s
         19   -4.807E-04                                 F               2         First time derivative of 1st tower side-to-side bending mode DOF (internal DOF index = DOF_TSS1), m/s
         20    2.208E-06                                 F               2         First time derivative of 2nd tower fore-aft bending mode DOF (internal DOF index = DOF_TFA2), m/s
         21    7.224E-07                                 F               2         First time derivative of 2nd tower side-to-side bending mode DOF (internal DOF index = DOF_TSS2), m/s
         22    7.078E-01                                 F               2         First time derivative of Variable speed generator DOF (internal DOF index = DOF_GeAz), rad/s

Order of continuous state derivatives:
   Row/Column Operating Point                     Rotating Frame? Derivative Order Description
   ---------- ---------------                     --------------- ---------------- -----------
          1   -1.693E-04                                 F               2         First time derivative of Platform horizontal surge translation DOF (internal DOF index = DOF_Sg), m/s
          2   -8.625E-04                                 F               2         First time derivative of Platform horizontal sway translation DOF (internal DOF index = DOF_Sw), m/s
          3   -1.602E-03                                 F               2         First time derivative of Platform vertical heave translation DOF (internal DOF index = DOF_Hv), m/s
          4    9.471E-06                                 F               2         First time derivative of Platform roll tilt rotation DOF (internal DOF index = DOF_R), rad/s
          5   -4.081E-07                                 F               2         First time derivative of Platform pitch tilt rotation DOF (internal DOF index = DOF_P), rad/s
          6    2.412E-06                                 F               2         First time derivative of Platform yaw rotation DOF (internal DOF index = DOF_Y), rad/s
          7   -5.464E-04                                 F               2         First time derivative of 1st tower fore-aft bending mode DOF (internal DOF index = DOF_TFA1), m/s
          8   -4.807E-04                                 F               2         First time derivative of 1st tower side-to-side bending mode DOF (internal DOF index = DOF_TSS1), m/s
          9    2.208E-06                                 F               2         First time derivative of 2nd tower fore-aft bending mode DOF (internal DOF index = DOF_TFA2), m/s
         10    7.224E-07                                 F               2         First time derivative of 2nd tower side-to-side bending mode DOF (internal DOF index = DOF_TSS2), m/s
         11    7.078E-01                                 F               2         First time derivative of Variable speed generator DOF (internal DOF index = DOF_GeAz), rad/s
         12   -3.501E-05                                 F               2         First time derivative of First time derivative of Platform horizontal surge translation DOF (internal DOF index = DOF_Sg), m/s/s
         13   -8.231E-05                                 F               2         First time derivative of First time derivative of Platform horizontal sway translation DOF (internal DOF index = DOF_Sw), m/s/s
         14    7.295E-04                                 F               2         First time derivative of First time derivative of Platform vertical heave translation DOF (internal DOF index = DOF_Hv), m/s/s
         15    2.217E-06                                 F               2         First time derivative of First time derivative of Platform roll tilt rotation DOF (internal DOF index = DOF_R), rad/s/s
         16   -2.142E-06                                 F               2         First time derivative of First time derivative of Platform pitch tilt rotation DOF (internal DOF index = DOF_P), rad/s/s
         17    3.898E-07                                 F               2         First time derivative of First time derivative of Platform yaw rotation DOF (internal DOF index = DOF_Y), rad/s/s
         18   -1.177E-04                                 F               2         First time derivative of First time derivative of 1st tower fore-aft bending mode DOF (internal DOF index = DOF_TFA1), m/s/s
         19   -2.097E-04                                 F               2         First time derivative of First time derivative of 1st tower side-to-side bending mode DOF (internal DOF index = DOF_TSS1), m/s/s
         20   -5.171E-07                                 F               2         First time derivative of First time derivative of 2nd tower fore-aft bending mode DOF (internal DOF index = DOF_TFA2), m/s/s
         21   -2.363E-07                                 F               2         First time derivative of First time derivative of 2nd tower side-to-side bending mode DOF (internal DOF index = DOF_TSS2), m/s/s
         22   -2.513E-05                                 F               2         First time derivative of First time derivative of Variable speed generator DOF (internal DOF index = DOF_GeAz), rad/s/s

Order of inputs:
     Column   Operating Point                     Rotating Frame? Derivative Order Description
   ---------- ---------------                     --------------- ---------------- -----------
          1    3.842E+01                                 F               0         Blade 1 X force, node 1, N
          2   -9.776E+00                                 F               0         Blade 1 Y force, node 1, N
          3   -3.442E+01                                 F               0         Blade 1 Z force, node 1, N
          4    1.818E+02                                 F               0         Blade 1 X force, node 2, N
          5   -1.899E+01                                 F               0         Blade 1 Y force, node 2, N
          6   -9.054E+01                                 F               0         Blade 1 Z force, node 2, N
          7    2.600E+02                                 F               0         Blade 1 X force, node 3, N
          8   -4.539E+00                                 F               0         Blade 1 Y force, node 3, N
          9   -6.945E+01                                 F               0         Blade 1 Z force, node 3, N
         10    3.577E+02                                 F               0         Blade 1 X force, node 4, N
         11    7.806E+00                                 F               0         Blade 1 Y force, node 4, N
         12   -5.825E+01                                 F               0         Blade 1 Z force, node 4, N
         13    4.553E+02                                 F               0         Blade 1 X force, node 5, N
         14    2.015E+01                                 F               0         Blade 1 Y force, node 5, N
         15   -4.705E+01                                 F               0         Blade 1 Z force, node 5, N
         16    5.530E+02                                 F               0         Blade 1 X force, node 6, N
         17    3.250E+01                                 F               0         Blade 1 Y force, node 6, N
         18   -3.586E+01                                 F               0         Blade 1 Z force, node 6, N
         19    6.506E+02                                 F               0         Blade 1 X force, node 7, N
         20    4.484E+01                                 F               0         Blade 1 Y force, node 7, N
         21   -2.466E+01                                 F               0         Blade 1 Z force, node 7, N
         22    7.483E+02                                 F               0         Blade 1 X force, node 8, N
         23    5.719E+01                                 F               0         Blade 1 Y force, node 8, N
         24   -1.347E+01                                 F               0         Blade 1 Z force, node 8, N
         25    8.459E+02                                 F               0         Blade 1 X force, node 9, N
         26    6.953E+01                                 F               0         Blade 1 Y force, node 9, N
         27   -2.269E+00                                 F               0         Blade 1 Z force, node 9, N
         28    9.436E+02                                 F               0         Blade 1 X force, node 10, N
         29    8.188E+01                                 F               0         Blade 1 Y force, node 10, N
         30    8.927E+00                                 F               0         Blade 1 Z force, node 10, N
         31    1.041E+03                                 F               0         Blade 1 X force, node 11, N
         32    9.423E+01                                 F               0         Blade 1 Y force, node 11, N
         33    2.012E+01                                 F               0         Blade 1 Z force, node 11, N
         34    1.139E+03                                 F               0         Blade 1 X force, node 12, N
         35    1.066E+02                                 F               0         Blade 1 Y force, node 12, N
         36    3.132E+01                                 F               0         Blade 1 Z force, node 12, N
         37    1.237E+03                                 F               0         Blade 1 X force, node 13, N
         38    1.189E+02                                 F               0         Blade 1 Y force, node 13, N
         39    4.252E+01                                 F               0         Blade 1 Z force, node 13, N
         40    1.334E+03                                 F               0         Blade 1 X force, node 14, N
         41    1.313E+02                                 F               0         Blade 1 Y force, node 14, N
         42    5.371E+01                                 F               0         Blade 1 Z force, node 14, N
         43    1.432E+03                                 F               0         Blade 1 X force, node 15, N
         44    1.436E+02                                 F               0         Blade 1 Y force, node 15, N
         45    6.491E+01                                 F               0         Blade 1 Z force, node 15, N
         46    1.529E+03                                 F               0         Blade 1 X force, node 16, N
         47    1.560E+02                                 F               0         Blade 1 Y force, node 16, N
         48    7.610E+01                                 F               0         Blade 1 Z force, node 16, N
         49    1.887E+03                                 F               0         Blade 1 X force, node 17, N
         50    1.944E+02                                 F               0         Blade 1 Y force, node 17, N
         51    9.932E+01                                 F               0         Blade 1 Z force, node 17, N
         52    1.442E+03                                 F               0         Blade 1 X force, node 18, N
         53    1.438E+02                                 F               0         Blade 1 Y force, node 18, N
         54    6.320E+01                                 F               0         Blade 1 Z force, node 18, N
         55    1.769E+03                                 F               0         Blade 1 X force, node 19, N
         56    1.687E+02                                 F               0         Blade 1 Y force, node 19, N
         57    5.701E+01                                 F               0         Blade 1 Z force, node 19, N
         58    1.508E+03                                 F               0         Blade 1 X force, node 20, N
         59    1.377E+02                                 F               0         Blade 1 Y force, node 20, N
         60    3.244E+01                                 F               0         Blade 1 Z force, node 20, N
         61    2.228E+03                                 F               0         Blade 1 X force, node 21, N
         62    1.934E+02                                 F               0         Blade 1 Y force, node 21, N
         63    2.142E+01                                 F               0         Blade 1 Z force, node 21, N
         64    1.966E+03                                 F               0         Blade 1 X force, node 22, N
         65    1.624E+02                                 F               0         Blade 1 Y force, node 22, N
         66   -3.201E+00                                 F               0         Blade 1 Z force, node 22, N
         67    2.020E+03                                 F               0         Blade 1 X force, node 23, N
         68    1.594E+02                                 F               0         Blade 1 Y force, node 23, N
         69   -2.309E+01                                 F               0         Blade 1 Z force, node 23, N
         70    2.109E+03                                 F               0         Blade 1 X force, node 24, N
         71    1.591E+02                                 F               0         Blade 1 Y force, node 24, N
         72   -4.360E+01                                 F               0         Blade 1 Z force, node 24, N
         73    2.162E+03                                 F               0         Blade 1 X force, node 25, N
         74    1.560E+02                                 F               0         Blade 1 Y force, node 25, N
         75   -6.344E+01                                 F               0         Blade 1 Z force, node 25, N
         76    2.227E+03                                 F               0         Blade 1 X force, node 26, N
         77    1.538E+02                                 F               0         Blade 1 Y force, node 26, N
         78   -8.348E+01                                 F               0         Blade 1 Z force, node 26, N
         79    2.669E+03                                 F               0         Blade 1 X force, node 27, N
         80    1.762E+02                                 F               0         Blade 1 Y force, node 27, N
         81   -1.218E+02                                 F               0         Blade 1 Z force, node 27, N
         82    1.979E+03                                 F               0         Blade 1 X force, node 28, N
         83    1.250E+02                                 F               0         Blade 1 Y force, node 28, N
         84   -1.053E+02                                 F               0         Blade 1 Z force, node 28, N
         85    2.421E+03                                 F               0         Blade 1 X force, node 29, N
         86    1.474E+02                                 F               0         Blade 1 Y force, node 29, N
         87   -1.435E+02                                 F               0         Blade 1 Z force, node 29, N
         88    2.060E+03                                 F               0         Blade 1 X force, node 30, N
         89    1.209E+02                                 F               0         Blade 1 Y force, node 30, N
         90   -1.340E+02                                 F               0         Blade 1 Z force, node 30, N
         91    2.976E+03                                 F               0         Blade 1 X force, node 31, N
         92    1.674E+02                                 F               0         Blade 1 Y force, node 31, N
         93   -2.129E+02                                 F               0         Blade 1 Z force, node 31, N
         94    2.615E+03                                 F               0         Blade 1 X force, node 32, N
         95    1.409E+02                                 F               0         Blade 1 Y force, node 32, N
         96   -2.034E+02                                 F               0         Blade 1 Z force, node 32, N
         97    2.679E+03                                 F               0         Blade 1 X force, node 33, N
         98    1.388E+02                                 F               0         Blade 1 Y force, node 33, N
         99   -2.233E+02                                 F               0         Blade 1 Z force, node 33, N
        100    2.744E+03                                 F               0         Blade 1 X force, node 34, N
        101    1.367E+02                                 F               0         Blade 1 Y force, node 34, N
        102   -2.432E+02                                 F               0         Blade 1 Z force, node 34, N
        103    2.809E+03                                 F               0         Blade 1 X force, node 35, N
        104    1.346E+02                                 F               0         Blade 1 Y force, node 35, N
        105   -2.631E+02                                 F               0         Blade 1 Z force, node 35, N
        106    2.873E+03                                 F               0         Blade 1 X force, node 36, N
        107    1.325E+02                                 F               0         Blade 1 Y force, node 36, N
        108   -2.829E+02                                 F               0         Blade 1 Z force, node 36, N
        109    3.437E+03                                 F               0         Blade 1 X force, node 37, N
        110    1.521E+02                                 F               0         Blade 1 Y force, node 37, N
        111   -3.552E+02                                 F               0         Blade 1 Z force, node 37, N
        112    2.504E+03                                 F               0         Blade 1 X force, node 38, N
        113    1.065E+02                                 F               0         Blade 1 Y force, node 38, N
        114   -2.702E+02                                 F               0         Blade 1 Z force, node 38, N
        115    3.068E+03                                 F               0         Blade 1 X force, node 39, N
        116    1.262E+02                                 F               0         Blade 1 Y force, node 39, N
        117   -3.425E+02                                 F               0         Blade 1 Z force, node 39, N
        118    2.616E+03                                 F               0         Blade 1 X force, node 40, N
        119    1.041E+02                                 F               0         Blade 1 Y force, node 40, N
        120   -3.014E+02                                 F               0         Blade 1 Z force, node 40, N
        121    3.716E+03                                 F               0         Blade 1 X force, node 41, N
        122    1.422E+02                                 F               0         Blade 1 Y force, node 41, N
        123   -4.431E+02                                 F               0         Blade 1 Z force, node 41, N
        124    3.263E+03                                 F               0         Blade 1 X force, node 42, N
        125    1.201E+02                                 F               0         Blade 1 Y force, node 42, N
        126   -4.020E+02                                 F               0         Blade 1 Z force, node 42, N
        127    3.328E+03                                 F               0         Blade 1 X force, node 43, N
        128    1.180E+02                                 F               0         Blade 1 Y force, node 43, N
        129   -4.217E+02                                 F               0         Blade 1 Z force, node 43, N
        130    3.410E+03                                 F               0         Blade 1 X force, node 44, N
        131    1.165E+02                                 F               0         Blade 1 Y force, node 44, N
        132   -4.438E+02                                 F               0         Blade 1 Z force, node 44, N
        133    3.439E+03                                 F               0         Blade 1 X force, node 45, N
        134    1.132E+02                                 F               0         Blade 1 Y force, node 45, N
        135   -4.589E+02                                 F               0         Blade 1 Z force, node 45, N
        136    3.522E+03                                 F               0         Blade 1 X force, node 46, N
        137    1.118E+02                                 F               0         Blade 1 Y force, node 46, N
        138   -4.810E+02                                 F               0         Blade 1 Z force, node 46, N
        139    4.216E+03                                 F               0         Blade 1 X force, node 47, N
        140    1.287E+02                                 F               0         Blade 1 Y force, node 47, N
        141   -5.894E+02                                 F               0         Blade 1 Z force, node 47, N
        142    3.022E+03                                 F               0         Blade 1 X force, node 48, N
        143    8.874E+01                                 F               0         Blade 1 Y force, node 48, N
        144   -4.317E+02                                 F               0         Blade 1 Z force, node 48, N
        145    3.716E+03                                 F               0         Blade 1 X force, node 49, N
        146    1.056E+02                                 F               0         Blade 1 Y force, node 49, N
        147   -5.401E+02                                 F               0         Blade 1 Z force, node 49, N
        148    3.179E+03                                 F               0         Blade 1 X force, node 50, N
        149    8.744E+01                                 F               0         Blade 1 Y force, node 50, N
        150   -4.698E+02                                 F               0         Blade 1 Z force, node 50, N
        151    4.446E+03                                 F               0         Blade 1 X force, node 51, N
        152    1.177E+02                                 F               0         Blade 1 Y force, node 51, N
        153   -6.694E+02                                 F               0         Blade 1 Z force, node 51, N
        154    3.911E+03                                 F               0         Blade 1 X force, node 52, N
        155    9.956E+01                                 F               0         Blade 1 Y force, node 52, N
        156   -5.992E+02                                 F               0         Blade 1 Z force, node 52, N
        157    3.976E+03                                 F               0         Blade 1 X force, node 53, N
        158    9.757E+01                                 F               0         Blade 1 Y force, node 53, N
        159   -6.190E+02                                 F               0         Blade 1 Z force, node 53, N
        160    4.086E+03                                 F               0         Blade 1 X force, node 54, N
        161    9.662E+01                                 F               0         Blade 1 Y force, node 54, N
        162   -6.458E+02                                 F               0         Blade 1 Z force, node 54, N
        163    4.063E+03                                 F               0         Blade 1 X force, node 55, N
        164    9.255E+01                                 F               0         Blade 1 Y force, node 55, N
        165   -6.514E+02                                 F               0         Blade 1 Z force, node 55, N
        166    4.173E+03                                 F               0         Blade 1 X force, node 56, N
        167    9.160E+01                                 F               0         Blade 1 Y force, node 56, N
        168   -6.782E+02                                 F               0         Blade 1 Z force, node 56, N
        169    5.005E+03                                 F               0         Blade 1 X force, node 57, N
        170    1.055E+02                                 F               0         Blade 1 Y force, node 57, N
        171   -8.250E+02                                 F               0         Blade 1 Z force, node 57, N
        172    3.537E+03                                 F               0         Blade 1 X force, node 58, N
        173    7.168E+01                                 F               0         Blade 1 Y force, node 58, N
        174   -5.906E+02                                 F               0         Blade 1 Z force, node 58, N
        175    4.369E+03                                 F               0         Blade 1 X force, node 59, N
        176    8.564E+01                                 F               0         Blade 1 Y force, node 59, N
        177   -7.374E+02                                 F               0         Blade 1 Z force, node 59, N
        178    3.756E+03                                 F               0         Blade 1 X force, node 60, N
        179    7.113E+01                                 F               0         Blade 1 Y force, node 60, N
        180   -6.405E+02                                 F               0         Blade 1 Z force, node 60, N
        181    5.179E+03                                 F               0         Blade 1 X force, node 61, N
        182    9.419E+01                                 F               0         Blade 1 Y force, node 61, N
        183   -8.935E+02                                 F               0         Blade 1 Z force, node 61, N
        184    4.564E+03                                 F               0         Blade 1 X force, node 62, N