
Linearized model: Predictions were generated on 08-Jan-2024 at 09:43:14 using OpenFAST, compiled as a 64-bit application using single precision at commit v3.5.1
 linked with  NWTC Subroutine Library; ElastoDyn; InflowWind; AeroDyn; ServoDyn; HydroDyn; MoorDyn (v2.0.0, 2023-09-18)

Description from the FAST input file: CCT-9 Campign 4 model. Input files to be run with OpenFAST 3.5.0. GitHub branch from Lu Wang (https://github.com/luwang00/openfast/tree/dev) compiled on March 7, 2023.

Simulation information:
   Simulation time:                  1001.7500 s
   Rotor Speed:                         0.7074 rad/s
   Azimuth:                             0.4252 rad
   Wind Speed:                          8.0000 m/s
   Number of continuous states:         0
   Number of discrete states:           0
   Number of constraint states:         0
   Number of inputs:                   54
   Number of outputs:                   0
   Jacobians included in this file?    No

Order of inputs:
     Column   Operating Point                     Rotating Frame? Derivative Order Description
   ---------- ---------------                     --------------- ---------------- -----------
          1    4.427E+00                                 F               0         CoupledKinematics X translation displacement, node 1, m
          2    3.239E-01                                 F               0         CoupledKinematics Y translation displacement, node 1, m
          3   -4.762E+00                                 F               0         CoupledKinematics Z translation displacement, node 1, m
          4    4.385E+00                                 F               0         CoupledKinematics X translation displacement, node 2, m
          5    2.216E-01                                 F               0         CoupledKinematics Y translation displacement, node 2, m
          6   -1.773E-01                                 F               0         CoupledKinematics Z translation displacement, node 2, m
          7    4.719E+00                                 F               0         CoupledKinematics X translation displacement, node 3, m
          8   -9.307E-02                                 F               0         CoupledKinematics Y translation displacement, node 3, m
          9    4.970E+00                                 F               0         CoupledKinematics Z translation displacement, node 3, m
         10    9.965E-01,  4.117E-03, -8.373E-02         F               0         CoupledKinematics X orientation angle, node 1, rad
         11   -4.356E-04,  9.990E-01,  4.394E-02         F               0         CoupledKinematics Y orientation angle, node 1, rad
         12    8.383E-02, -4.375E-02,  9.955E-01         F               0         CoupledKinematics Z orientation angle, node 1, rad
         13    9.965E-01,  4.117E-03, -8.373E-02         F               0         CoupledKinematics X orientation angle, node 2, rad
         14   -4.356E-04,  9.990E-01,  4.394E-02         F               0         CoupledKinematics Y orientation angle, node 2, rad
         15    8.383E-02, -4.375E-02,  9.955E-01         F               0         CoupledKinematics Z orientation angle, node 2, rad
         16    9.965E-01,  4.117E-03, -8.373E-02         F               0         CoupledKinematics X orientation angle, node 3, rad
         17   -4.356E-04,  9.990E-01,  4.394E-02         F               0         CoupledKinematics Y orientation angle, node 3, rad
         18    8.383E-02, -4.375E-02,  9.955E-01         F               0         CoupledKinematics Z orientation angle, node 3, rad
         19   -3.201E-05                                 F               0         CoupledKinematics X translation velocity, node 1, m/s
         20   -4.879E-04                                 F               0         CoupledKinematics Y translation velocity, node 1, m/s
         21   -8.975E-04                                 F               0         CoupledKinematics Z translation velocity, node 1, m/s
         22   -2.055E-04                                 F               0         CoupledKinematics X translation velocity, node 2, m/s
         23   -3.152E-04                                 F               0         CoupledKinematics Y translation velocity, node 2, m/s
         24   -4.801E-03                                 F               0         CoupledKinematics Z translation velocity, node 2, m/s
         25   -1.382E-04                                 F               0         CoupledKinematics X translation velocity, node 3, m/s
         26   -2.582E-04                                 F               0         CoupledKinematics Y translation velocity, node 3, m/s
         27   -3.073E-03                                 F               0         CoupledKinematics Z translation velocity, node 3, m/s
         28   -3.791E-05                                 F               0         CoupledKinematics X rotation velocity, node 1, rad/s
         29   -2.689E-06                                 F               0         CoupledKinematics Y rotation velocity, node 1, rad/s
         30    1.567E-06                                 F               0         CoupledKinematics Z rotation velocity, node 1, rad/s
         31   -3.791E-05                                 F               0         CoupledKinematics X rotation velocity, node 2, rad/s
         32   -2.689E-06                                 F               0         CoupledKinematics Y rotation velocity, node 2, rad/s
         33    1.567E-06                                 F               0         CoupledKinematics Z rotation velocity, node 2, rad/s
         34   -3.791E-05                                 F               0         CoupledKinematics X rotation velocity, node 3, rad/s
         35   -2.689E-06                                 F               0         CoupledKinematics Y rotation velocity, node 3, rad/s
         36    1.567E-06                                 F               0         CoupledKinematics Z rotation velocity, node 3, rad/s
         37   -1.416E-05                                 F               0         CoupledKinematics X translation acceleration, node 1, m/s^2
         38   -1.883E-04                                 F               0         CoupledKinematics Y translation acceleration, node 1, m/s^2
         39    3.013E-04                                 F               0         CoupledKinematics Z translation acceleration, node 1, m/s^2
         40   -1.981E-05                                 F               0         CoupledKinematics X translation acceleration, node 2, m/s^2
         41   -1.252E-04                                 F               0         CoupledKinematics Y translation acceleration, node 2, m/s^2
         42   -1.119E-03                                 F               0         CoupledKinematics Z translation acceleration, node 2, m/s^2
         43   -2.315E-05                                 F               0         CoupledKinematics X translation acceleration, node 3, m/s^2
         44   -5.571E-05                                 F               0         CoupledKinematics Y translation acceleration, node 3, m/s^2
         45   -4.775E-04                                 F               0         CoupledKinematics Z translation acceleration, node 3, m/s^2
         46   -1.380E-05                                 F               0         CoupledKinematics X rotation acceleration, node 1, rad/s^2
         47   -8.295E-07                                 F               0         CoupledKinematics Y rotation acceleration, node 1, rad/s^2
         48    1.805E-08                                 F               0         CoupledKinematics Z rotation acceleration, node 1, rad/s^2
         49   -1.380E-05                                 F               0         CoupledKinematics X rotation acceleration, node 2, rad/s^2
         50   -8.295E-07                                 F               0         CoupledKinematics Y rotation acceleration, node 2, rad/s^2
         51    1.805E-08                                 F               0         CoupledKinematics Z rotation acceleration, node 2, rad/s^2
         52   -1.380E-05                                 F               0         CoupledKinematics X rotation acceleration, node 3, rad/s^2
         53   -8.295E-07                                 F               0         CoupledKinematics Y rotation acceleration, node 3, rad/s^2
         54    1.805E-08                                 F               0         CoupledKinematics Z rotation acceleration, node 3, rad/s^2


Linearized state matrices:

