
Linearized model: Predictions were generated on 08-Jan-2024 at 09:43:14 using OpenFAST, compiled as a 64-bit application using single precision at commit v3.5.1
 linked with  NWTC Subroutine Library; ElastoDyn; InflowWind; AeroDyn; ServoDyn; HydroDyn; MoorDyn (v2.0.0, 2023-09-18)

Description from the FAST input file: CCT-9 Campign 4 model. Input files to be run with OpenFAST 3.5.0. GitHub branch from Lu Wang (https://github.com/luwang00/openfast/tree/dev) compiled on March 7, 2023.

Simulation information:
   Simulation time:                  1006.2250 s
   Rotor Speed:                         0.7078 rad/s
   Azimuth:                             3.5913 rad
   Wind Speed:                          8.0000 m/s
   Number of continuous states:         0
   Number of discrete states:           0
   Number of constraint states:         0
   Number of inputs:                   54
   Number of outputs:                   0
   Jacobians included in this file?    No

Order of inputs:
     Column   Operating Point                     Rotating Frame? Derivative Order Description
   ---------- ---------------                     --------------- ---------------- -----------
          1    4.427E+00                                 F               0         CoupledKinematics X translation displacement, node 1, m
          2    3.213E-01                                 F               0         CoupledKinematics Y translation displacement, node 1, m
          3   -4.768E+00                                 F               0         CoupledKinematics Z translation displacement, node 1, m
          4    4.383E+00                                 F               0         CoupledKinematics X translation displacement, node 2, m
          5    2.195E-01                                 F               0         CoupledKinematics Y translation displacement, node 2, m
          6   -1.975E-01                                 F               0         CoupledKinematics Z translation displacement, node 2, m
          7    4.718E+00                                 F               0         CoupledKinematics X translation displacement, node 3, m
          8   -9.561E-02                                 F               0         CoupledKinematics Y translation displacement, node 3, m
          9    4.957E+00                                 F               0         CoupledKinematics Z translation displacement, node 3, m
         10    9.965E-01,  4.119E-03, -8.374E-02         F               0         CoupledKinematics X orientation angle, node 1, rad
         11   -4.485E-04,  9.990E-01,  4.381E-02         F               0         CoupledKinematics Y orientation angle, node 1, rad
         12    8.384E-02, -4.362E-02,  9.955E-01         F               0         CoupledKinematics Z orientation angle, node 1, rad
         13    9.965E-01,  4.119E-03, -8.374E-02         F               0         CoupledKinematics X orientation angle, node 2, rad
         14   -4.485E-04,  9.990E-01,  4.381E-02         F               0         CoupledKinematics Y orientation angle, node 2, rad
         15    8.384E-02, -4.362E-02,  9.955E-01         F               0         CoupledKinematics Z orientation angle, node 2, rad
         16    9.965E-01,  4.119E-03, -8.374E-02         F               0         CoupledKinematics X orientation angle, node 3, rad
         17   -4.485E-04,  9.990E-01,  4.381E-02         F               0         CoupledKinematics Y orientation angle, node 3, rad
         18    8.384E-02, -4.362E-02,  9.955E-01         F               0         CoupledKinematics Z orientation angle, node 3, rad
         19   -5.089E-05                                 F               0         CoupledKinematics X translation velocity, node 1, m/s
         20   -6.080E-04                                 F               0         CoupledKinematics Y translation velocity, node 1, m/s
         21   -2.306E-03                                 F               0         CoupledKinematics Z translation velocity, node 1, m/s
         22   -2.772E-04                                 F               0         CoupledKinematics X translation velocity, node 2, m/s
         23   -6.181E-04                                 F               0         CoupledKinematics Y translation velocity, node 2, m/s
         24   -2.114E-03                                 F               0         CoupledKinematics Z translation velocity, node 2, m/s
         25   -1.736E-04                                 F               0         CoupledKinematics X translation velocity, node 3, m/s
         26   -8.163E-04                                 F               0         CoupledKinematics Y translation velocity, node 3, m/s
         27   -2.333E-03                                 F               0         CoupledKinematics Z translation velocity, node 3, m/s
         28    1.875E-06                                 F               0         CoupledKinematics X rotation velocity, node 1, rad/s
         29   -1.384E-06                                 F               0         CoupledKinematics Y rotation velocity, node 1, rad/s
         30    2.138E-06                                 F               0         CoupledKinematics Z rotation velocity, node 1, rad/s
         31    1.875E-06                                 F               0         CoupledKinematics X rotation velocity, node 2, rad/s
         32   -1.384E-06                                 F               0         CoupledKinematics Y rotation velocity, node 2, rad/s
         33    2.138E-06                                 F               0         CoupledKinematics Z rotation velocity, node 2, rad/s
         34    1.875E-06                                 F               0         CoupledKinematics X rotation velocity, node 3, rad/s
         35   -1.384E-06                                 F               0         CoupledKinematics Y rotation velocity, node 3, rad/s
         36    2.138E-06                                 F               0         CoupledKinematics Z rotation velocity, node 3, rad/s
         37   -1.986E-05                                 F               0         CoupledKinematics X translation acceleration, node 1, m/s^2
         38    2.328E-07                                 F               0         CoupledKinematics Y translation acceleration, node 1, m/s^2
         39   -7.736E-05                                 F               0         CoupledKinematics Z translation acceleration, node 1, m/s^2
         40    2.204E-05                                 F               0         CoupledKinematics X translation acceleration, node 2, m/s^2
         41   -5.530E-05                                 F               0         CoupledKinematics Y translation acceleration, node 2, m/s^2
         42    1.180E-03                                 F               0         CoupledKinematics Z translation acceleration, node 2, m/s^2
         43    7.703E-06                                 F               0         CoupledKinematics X translation acceleration, node 3, m/s^2
         44   -8.589E-05                                 F               0         CoupledKinematics Y translation acceleration, node 3, m/s^2
         45    6.270E-04                                 F               0         CoupledKinematics Z translation acceleration, node 3, m/s^2
         46    1.221E-05                                 F               0         CoupledKinematics X rotation acceleration, node 1, rad/s^2
         47    9.067E-07                                 F               0         CoupledKinematics Y rotation acceleration, node 1, rad/s^2
         48   -3.669E-07                                 F               0         CoupledKinematics Z rotation acceleration, node 1, rad/s^2
         49    1.221E-05                                 F               0         CoupledKinematics X rotation acceleration, node 2, rad/s^2
         50    9.067E-07                                 F               0         CoupledKinematics Y rotation acceleration, node 2, rad/s^2
         51   -3.669E-07                                 F               0         CoupledKinematics Z rotation acceleration, node 2, rad/s^2
         52    1.221E-05                                 F               0         CoupledKinematics X rotation acceleration, node 3, rad/s^2
         53    9.067E-07                                 F               0         CoupledKinematics Y rotation acceleration, node 3, rad/s^2
         54   -3.669E-07                                 F               0         CoupledKinematics Z rotation acceleration, node 3, rad/s^2


Linearized state matrices:

