
Linearized model: Predictions were generated on 08-Jan-2024 at 09:43:14 using OpenFAST, compiled as a 64-bit application using single precision at commit v3.5.1
 linked with  NWTC Subroutine Library; ElastoDyn; InflowWind; AeroDyn; ServoDyn; HydroDyn; MoorDyn (v2.0.0, 2023-09-18)

Description from the FAST input file: CCT-9 Campign 4 model. Input files to be run with OpenFAST 3.5.0. GitHub branch from Lu Wang (https://github.com/luwang00/openfast/tree/dev) compiled on March 7, 2023.

Simulation information:
   Simulation time:                  1003.0000 s
   Rotor Speed:                         0.7074 rad/s
   Azimuth:                             1.3094 rad
   Wind Speed:                          8.0000 m/s
   Number of continuous states:         0
   Number of discrete states:           0
   Number of constraint states:         0
   Number of inputs:                 1746
   Number of outputs:                   4
   Jacobians included in this file?    No

Order of inputs:
     Column   Operating Point                     Rotating Frame? Derivative Order Description
   ---------- ---------------                     --------------- ---------------- -----------
          1    7.251E+00                                 F               0         Tower X translation displacement, node 1, m
          2   -1.278E+00                                 F               0         Tower Y translation displacement, node 1, m
          3   -1.539E-01                                 F               0         Tower Z translation displacement, node 1, m
          4    8.293E+00                                 F               0         Tower X translation displacement, node 2, m
          5   -1.820E+00                                 F               0         Tower Y translation displacement, node 2, m
          6   -2.099E-01                                 F               0         Tower Z translation displacement, node 2, m
          7    9.351E+00                                 F               0         Tower X translation displacement, node 3, m
          8   -2.367E+00                                 F               0         Tower Y translation displacement, node 3, m
          9   -2.674E-01                                 F               0         Tower Z translation displacement, node 3, m
         10    1.042E+01                                 F               0         Tower X translation displacement, node 4, m
         11   -2.918E+00                                 F               0         Tower Y translation displacement, node 4, m
         12   -3.262E-01                                 F               0         Tower Z translation displacement, node 4, m
         13    1.150E+01                                 F               0         Tower X translation displacement, node 5, m
         14   -3.473E+00                                 F               0         Tower Y translation displacement, node 5, m
         15   -3.859E-01                                 F               0         Tower Z translation displacement, node 5, m
         16    1.259E+01                                 F               0         Tower X translation displacement, node 6, m
         17   -4.031E+00                                 F               0         Tower Y translation displacement, node 6, m
         18   -4.464E-01                                 F               0         Tower Z translation displacement, node 6, m
         19    1.368E+01                                 F               0         Tower X translation displacement, node 7, m
         20   -4.591E+00                                 F               0         Tower Y translation displacement, node 7, m
         21   -5.074E-01                                 F               0         Tower Z translation displacement, node 7, m
         22    1.477E+01                                 F               0         Tower X translation displacement, node 8, m
         23   -5.153E+00                                 F               0         Tower Y translation displacement, node 8, m
         24   -5.689E-01                                 F               0         Tower Z translation displacement, node 8, m
         25    1.587E+01                                 F               0         Tower X translation displacement, node 9, m
         26   -5.716E+00                                 F               0         Tower Y translation displacement, node 9, m
         27   -6.307E-01                                 F               0         Tower Z translation displacement, node 9, m
         28    1.697E+01                                 F               0         Tower X translation displacement, node 10, m
         29   -6.281E+00                                 F               0         Tower Y translation displacement, node 10, m
         30   -6.927E-01                                 F               0         Tower Z translation displacement, node 10, m
         31    1.807E+01                                 F               0         Tower X translation displacement, node 11, m
         32   -6.846E+00                                 F               0         Tower Y translation displacement, node 11, m
         33   -7.547E-01                                 F               0         Tower Z translation displacement, node 11, m
         34    9.965E-01,  4.116E-03, -8.373E-02         F               0         Tower X orientation angle, node 1, rad
         35   -4.394E-04,  9.990E-01,  4.389E-02         F               0         Tower Y orientation angle, node 1, rad
         36    8.383E-02, -4.370E-02,  9.955E-01         F               0         Tower Z orientation angle, node 1, rad
         37    9.964E-01,  4.170E-03, -8.494E-02         F               0         Tower X orientation angle, node 2, rad
         38   -4.057E-04,  9.990E-01,  4.428E-02         F               0         Tower Y orientation angle, node 2, rad
         39    8.504E-02, -4.409E-02,  9.954E-01         F               0         Tower Z orientation angle, node 2, rad
         40    9.963E-01,  4.216E-03, -8.598E-02         F               0         Tower X orientation angle, node 3, rad
         41   -3.751E-04,  9.990E-01,  4.464E-02         F               0         Tower Y orientation angle, node 3, rad
         42    8.608E-02, -4.444E-02,  9.953E-01         F               0         Tower Z orientation angle, node 3, rad
         43    9.962E-01,  4.254E-03, -8.683E-02         F               0         Tower X orientation angle, node 4, rad
         44   -3.480E-04,  9.990E-01,  4.495E-02         F               0         Tower Y orientation angle, node 4, rad
         45    8.694E-02, -4.475E-02,  9.952E-01         F               0         Tower Z orientation angle, node 4, rad
         46    9.962E-01,  4.285E-03, -8.752E-02         F               0         Tower X orientation angle, node 5, rad
         47   -3.247E-04,  9.990E-01,  4.522E-02         F               0         Tower Y orientation angle, node 5, rad
         48    8.762E-02, -4.502E-02,  9.951E-01         F               0         Tower Z orientation angle, node 5, rad
         49    9.961E-01,  4.309E-03, -8.804E-02         F               0         Tower X orientation angle, node 6, rad
         50   -3.050E-04,  9.990E-01,  4.544E-02         F               0         Tower Y orientation angle, node 6, rad
         51    8.814E-02, -4.524E-02,  9.951E-01         F               0         Tower Z orientation angle, node 6, rad
         52    9.961E-01,  4.326E-03, -8.841E-02         F               0         Tower X orientation angle, node 7, rad
         53   -2.892E-04,  9.990E-01,  4.562E-02         F               0         Tower Y orientation angle, node 7, rad
         54    8.852E-02, -4.542E-02,  9.950E-01         F               0         Tower Z orientation angle, node 7, rad
         55    9.961E-01,  4.338E-03, -8.867E-02         F               0         Tower X orientation angle, node 8, rad
         56   -2.769E-04,  9.990E-01,  4.576E-02         F               0         Tower Y orientation angle, node 8, rad
         57    8.877E-02, -4.555E-02,  9.950E-01         F               0         Tower Z orientation angle, node 8, rad
         58    9.960E-01,  4.345E-03, -8.883E-02         F               0         Tower X orientation angle, node 9, rad
         59   -2.679E-04,  9.989E-01,  4.586E-02         F               0         Tower Y orientation angle, node 9, rad
         60    8.894E-02, -4.566E-02,  9.950E-01         F               0         Tower Z orientation angle, node 9, rad
         61    9.960E-01,  4.350E-03, -8.892E-02         F               0         Tower X orientation angle, node 10, rad
         62   -2.621E-04,  9.989E-01,  4.593E-02         F               0         Tower Y orientation angle, node 10, rad
         63    8.902E-02, -4.572E-02,  9.950E-01         F               0         Tower Z orientation angle, node 10, rad
         64    9.960E-01,  4.351E-03, -8.896E-02         F               0         Tower X orientation angle, node 11, rad
         65   -2.588E-04,  9.989E-01,  4.597E-02         F               0         Tower Y orientation angle, node 11, rad
         66    8.906E-02, -4.576E-02,  9.950E-01         F               0         Tower Z orientation angle, node 11, rad
         67   -2.401E-04                                 F               0         Tower X translation velocity, node 1, m/s
         68    1.030E-03                                 F               0         Tower Y translation velocity, node 1, m/s
         69   -3.141E-03                                 F               0         Tower Z translation velocity, node 1, m/s
         70   -2.708E-04                                 F               0         Tower X translation velocity, node 2, m/s
         71    1.599E-03                                 F               0         Tower Y translation velocity, node 2, m/s
         72   -3.113E-03                                 F               0         Tower Z translation velocity, node 2, m/s
         73   -2.892E-04                                 F               0         Tower X translation velocity, node 3, m/s
         74    2.161E-03                                 F               0         Tower Y translation velocity, node 3, m/s
         75   -3.087E-03                                 F               0         Tower Z translation velocity, node 3, m/s
         76   -2.966E-04                                 F               0         Tower X translation velocity, node 4, m/s
         77    2.717E-03                                 F               0         Tower Y translation velocity, node 4, m/s
         78   -3.061E-03                                 F               0         Tower Z translation velocity, node 4, m/s
         79   -2.934E-04                                 F               0         Tower X translation velocity, node 5, m/s
         80    3.267E-03                                 F               0         Tower Y translation velocity, node 5, m/s
         81   -3.036E-03                                 F               0         Tower Z translation velocity, node 5, m/s
         82   -2.802E-04                                 F               0         Tower X translation velocity, node 6, m/s
         83    3.811E-03                                 F               0         Tower Y translation velocity, node 6, m/s
         84   -3.013E-03                                 F               0         Tower Z translation velocity, node 6, m/s
         85   -2.585E-04                                 F               0         Tower X translation velocity, node 7, m/s
         86    4.350E-03                                 F               0         Tower Y translation velocity, node 7, m/s
         87   -2.990E-03                                 F               0         Tower Z translation velocity, node 7, m/s
         88   -2.285E-04                                 F               0         Tower X translation velocity, node 8, m/s
         89    4.885E-03                                 F               0         Tower Y translation velocity, node 8, m/s
         90   -2.969E-03                                 F               0         Tower Z translation velocity, node 8, m/s
         91   -1.916E-04                                 F               0         Tower X translation velocity, node 9, m/s
         92    5.415E-03                                 F               0         Tower Y translation velocity, node 9, m/s
         93   -2.948E-03                                 F               0         Tower Z translation velocity, node 9, m/s
         94   -1.494E-04                                 F               0         Tower X translation velocity, node 10, m/s
         95    5.943E-03                                 F               0         Tower Y translation velocity, node 10, m/s
         96   -2.927E-03                                 F               0         Tower Z translation velocity, node 10, m/s
         97   -1.037E-04                                 F               0         Tower X translation velocity, node 11, m/s
         98    6.469E-03                                 F               0         Tower Y translation velocity, node 11, m/s
         99   -2.907E-03                                 F               0         Tower Z translation velocity, node 11, m/s
        100    1.881E+01                                 F               0         Hub X translation displacement, node 1, m
        101   -7.252E+00                                 F               0         Hub Y translation displacement, node 1, m
        102    1.666E-01                                 F               0         Hub Z translation displacement, node 1, m
        103    9.813E-01,  9.111E-03, -1.925E-01         F               0         Hub X orientation angle, node 1, rad
        104    1.861E-01,  2.146E-01,  9.588E-01         F               0         Hub Y orientation angle, node 1, rad
        105    5.004E-02, -9.767E-01,  2.089E-01         F               0         Hub Z orientation angle, node 1, rad
        106    6.941E-01                                 F               0         Hub X rotation velocity, node 1, rad/s
        107    6.448E-03                                 F               0         Hub Y rotation velocity, node 1, rad/s
        108   -1.362E-01                                 F               0         Hub Z rotation velocity, node 1, rad/s
        109    9.753E-01,  2.741E-03, -2.208E-01         F               0         Blade root 1 X orientation angle, node 1, rad
        110    2.151E-01,  2.148E-01,  9.527E-01         F               0         Blade root 1 Y orientation angle, node 1, rad
        111    5.004E-02, -9.767E-01,  2.089E-01         F               0         Blade root 1 Z orientation angle, node 1, rad
        112    9.823E-01,  3.738E-02, -1.835E-01         F               0         Blade root 2 X orientation angle, node 1, rad
        113   -2.057E-02, -9.524E-01, -3.041E-01         F               0         Blade root 2 Y orientation angle, node 1, rad
        114   -1.862E-01,  3.025E-01, -9.348E-01         F               0         Blade root 2 Z orientation angle, node 1, rad
        115    9.849E-01, -1.280E-02, -1.728E-01         F               0         Blade root 3 X orientation angle, node 1, rad
        116   -1.072E-01,  7.385E-01, -6.657E-01         F               0         Blade root 3 Y orientation angle, node 1, rad
        117    1.361E-01,  6.742E-01,  7.259E-01         F               0         Blade root 3 Z orientation angle, node 1, rad
        118    1.851E+01                                 F               0         Blade 1 X translation displacement, node 1, m
        119   -1.266E+01                                 F               0         Blade 1 Y translation displacement, node 1, m
        120   -4.186E+00                                 F               0         Blade 1 Z translation displacement, node 1, m
        121    1.844E+01                                 F               0         Blade 1 X translation displacement, node 2, m
        122   -1.397E+01                                 F               0         Blade 1 Y translation displacement, node 2, m
        123   -5.235E+00                                 F               0         Blade 1 Z translation displacement, node 2, m
        124    1.745E+01                                 F               0         Blade 1 X translation displacement, node 3, m
        125   -3.170E+01                                 F               0         Blade 1 Y translation displacement, node 3, m
        126   -1.950E+01                                 F               0         Blade 1 Z translation displacement, node 3, m
        127    1.724E+01                                 F               0         Blade 1 X translation displacement, node 4, m
        128   -3.547E+01                                 F               0         Blade 1 Y translation displacement, node 4, m
        129   -2.253E+01                                 F               0         Blade 1 Z translation displacement, node 4, m
        130    1.703E+01                                 F               0         Blade 1 X translation displacement, node 5, m
        131   -3.925E+01                                 F               0         Blade 1 Y translation displacement, node 5, m
        132   -2.557E+01                                 F               0         Blade 1 Z translation displacement, node 5, m
        133    1.682E+01                                 F               0         Blade 1 X translation displacement, node 6, m
        134   -4.303E+01                                 F               0         Blade 1 Y translation displacement, node 6, m
        135   -2.861E+01                                 F               0         Blade 1 Z translation displacement, node 6, m
        136    1.661E+01                                 F               0         Blade 1 X translation displacement, node 7, m
        137   -4.680E+01                                 F               0         Blade 1 Y translation displacement, node 7, m
        138   -3.165E+01                                 F               0         Blade 1 Z translation displacement, node 7, m
        139    1.639E+01                                 F               0         Blade 1 X translation displacement, node 8, m
        140   -5.058E+01                                 F               0         Blade 1 Y translation displacement, node 8, m
        141   -3.469E+01                                 F               0         Blade 1 Z translation displacement, node 8, m
        142    1.618E+01                                 F               0         Blade 1 X translation displacement, node 9, m
        143   -5.436E+01                                 F               0         Blade 1 Y translation displacement, node 9, m
        144   -3.773E+01                                 F               0         Blade 1 Z translation displacement, node 9, m
        145    1.597E+01                                 F               0         Blade 1 X translation displacement, node 10, m
        146   -5.814E+01                                 F               0         Blade 1 Y translation displacement, node 10, m
        147   -4.077E+01                                 F               0         Blade 1 Z translation displacement, node 10, m
        148    1.576E+01                                 F               0         Blade 1 X translation displacement, node 11, m
        149   -6.191E+01                                 F               0         Blade 1 Y translation displacement, node 11, m
        150   -4.380E+01                                 F               0         Blade 1 Z translation displacement, node 11, m
        151    1.555E+01                                 F               0         Blade 1 X translation displacement, node 12, m
        152   -6.569E+01                                 F               0         Blade 1 Y translation displacement, node 12, m
        153   -4.684E+01                                 F               0         Blade 1 Z translation displacement, node 12, m
        154    1.534E+01                                 F               0         Blade 1 X translation displacement, node 13, m
        155   -6.947E+01                                 F               0         Blade 1 Y translation displacement, node 13, m
        156   -4.988E+01                                 F               0         Blade 1 Z translation displacement, node 13, m
        157    1.513E+01                                 F               0         Blade 1 X translation displacement, node 14, m
        158   -7.325E+01                                 F               0         Blade 1 Y translation displacement, node 14, m
        159   -5.292E+01                                 F               0         Blade 1 Z translation displacement, node 14, m
        160    1.492E+01                                 F               0         Blade 1 X translation displacement, node 15, m
        161   -7.702E+01                                 F               0         Blade 1 Y translation displacement, node 15, m
        162   -5.596E+01                                 F               0         Blade 1 Z translation displacement, node 15, m
        163    1.471E+01                                 F               0         Blade 1 X translation displacement, node 16, m
        164   -8.080E+01                                 F               0         Blade 1 Y translation displacement, node 16, m
        165   -5.900E+01                                 F               0         Blade 1 Z translation displacement, node 16, m
        166    1.450E+01                                 F               0         Blade 1 X translation displacement, node 17, m
        167   -8.458E+01                                 F               0         Blade 1 Y translation displacement, node 17, m
        168   -6.204E+01                                 F               0         Blade 1 Z translation displacement, node 17, m
        169    1.429E+01                                 F               0         Blade 1 X translation displacement, node 18, m
        170   -8.836E+01                                 F               0         Blade 1 Y translation displacement, node 18, m
        171   -6.508E+01                                 F               0         Blade 1 Z translation displacement, node 18, m
        172    1.408E+01                                 F               0         Blade 1 X translation displacement, node 19, m
        173   -9.213E+01                                 F               0         Blade 1 Y translation displacement, node 19, m
        174   -6.811E+01                                 F               0         Blade 1 Z translation displacement, node 19, m
        175    1.387E+01                                 F               0         Blade 1 X translation displacement, node 20, m
        176   -9.591E+01                                 F               0         Blade 1 Y translation displacement, node 20, m
        177   -7.115E+01                                 F               0         Blade 1 Z translation displacement, node 20, m
        178    1.365E+01                                 F               0         Blade 1 X translation displacement, node 21, m
        179   -9.969E+01                                 F               0         Blade 1 Y translation displacement, node 21, m
        180   -7.419E+01                                 F               0         Blade 1 Z translation displacement, node 21, m
        181    1.344E+01                                 F               0         Blade 1 X translation displacement, node 22, m
        182   -1.035E+02                                 F               0         Blade 1 Y translation displacement, node 22, m
        183   -7.723E+01                                 F               0         Blade 1 Z translation displacement, node 22, m
        184    1.323E+01                                 F               0         Blade 1 X translation displacement, node 23, m
        185   -1.072E+02                                 F               0         Blade 1 Y translation displacement, node 23, m
        186   -8.027E+01                                 F               0         Blade 1 Z translation displacement, node 23, m
        187    1.302E+01                                 F               0         Blade 1 X translation displacement, node 24, m
        188   -1.110E+02                                 F               0         Blade 1 Y translation displacement, node 24, m
        189   -8.331E+01                                 F               0         Blade 1 Z translation displacement, node 24, m
        190    1.281E+01                                 F               0         Blade 1 X translation displacement, node 25, m
        191   -1.148E+02                                 F               0         Blade 1 Y translation displacement, node 25, m
        192   -8.635E+01                                 F               0         Blade 1 Z translation displacement, node 25, m
        193    1.260E+01                                 F               0         Blade 1 X translation displacement, node 26, m
        194   -1.186E+02                                 F               0         Blade 1 Y translation displacement, node 26, m
        195   -8.938E+01                                 F               0         Blade 1 Z translation displacement, node 26, m
        196    1.239E+01                                 F               0         Blade 1 X translation displacement, node 27, m
        197   -1.224E+02                                 F               0         Blade 1 Y translation displacement, node 27, m
        198   -9.242E+01                                 F               0         Blade 1 Z translation displacement, node 27, m
        199    1.221E+01                                 F               0         Blade 1 X translation displacement, node 28, m
        200   -1.256E+02                                 F               0         Blade 1 Y translation displacement, node 28, m
        201   -9.500E+01                                 F               0         Blade 1 Z translation displacement, node 28, m
        202    7.699E-01, -9.550E-02, -6.310E-01         F               0         Blade 1 X orientation angle, node 1, rad
        203    6.362E-01,  1.924E-01,  7.472E-01         F               0         Blade 1 Y orientation angle, node 1, rad
        204    5.004E-02, -9.767E-01,  2.089E-01         F               0         Blade 1 Z orientation angle, node 1, rad
        205    7.699E-01, -9.550E-02, -6.310E-01         F               0         Blade 1 X orientation angle, node 2, rad
        206    6.362E-01,  1.924E-01,  7.472E-01         F               0         Blade 1 Y orientation angle, node 2, rad
        207    5.004E-02, -9.767E-01,  2.089E-01         F               0         Blade 1 Z orientation angle, node 2, rad
        208    8.988E-01, -4.718E-02, -4.359E-01         F               0         Blade 1 X orientation angle, node 3, rad
        209    4.356E-01,  2.095E-01,  8.754E-01         F               0         Blade 1 Y orientation angle, node 3, rad
        210    5.004E-02, -9.767E-01,  2.089E-01         F               0         Blade 1 Z orientation angle, node 3, rad
        211    9.163E-01, -3.829E-02, -3.986E-01         F               0         Blade 1 X orientation angle, node 4, rad
        212    3.973E-01,  2.113E-01,  8.930E-01         F               0         Blade 1 Y orientation angle, node 4, rad
        213    5.004E-02, -9.767E-01,  2.089E-01         F               0         Blade 1 Z orientation angle, node 4, rad
        214    9.290E-01, -3.126E-02, -3.687E-01         F               0         Blade 1 X orientation angle, node 5, rad
        215    3.667E-01,  2.125E-01,  9.058E-01         F               0         Blade 1 Y orientation angle, node 5, rad
        216    5.004E-02, -9.767E-01,  2.089E-01         F               0         Blade 1 Z orientation angle, node 5, rad
        217    9.384E-01, -2.561E-02, -3.446E-01         F               0         Blade 1 X orientation angle, node 6, rad
        218    3.419E-01,  2.133E-01,  9.152E-01         F               0         Blade 1 Y orientation angle, node 6, rad
        219    5.004E-02, -9.767E-01,  2.089E-01         F               0         Blade 1 Z orientation angle, node 6, rad
        220    9.456E-01, -2.096E-02, -3.245E-01         F               0         Blade 1 X orientation angle, node 7, rad
        221    3.213E-01,  2.138E-01,  9.225E-01         F               0         Blade 1 Y orientation angle, node 7, rad
        222    5.004E-02, -9.767E-01,  2.089E-01         F               0         Blade 1 Z orientation angle, node 7, rad
        223    9.513E-01, -1.707E-02, -3.077E-01         F               0         Blade 1 X orientation angle, node 8, rad
        224    3.041E-01,  2.141E-01,  9.283E-01         F               0         Blade 1 Y orientation angle, node 8, rad
        225    5.004E-02, -9.767E-01,  2.089E-01         F               0         Blade 1 Z orientation angle, node 8, rad
        226    9.559E-01, -1.378E-02, -2.934E-01         F               0         Blade 1 X orientation angle, node 9, rad
        227    2.895E-01,  2.143E-01,  9.329E-01         F               0         Blade 1 Y orientation angle, node 9, rad