
Linearized model: Predictions were generated on 08-Jan-2024 at 09:43:14 using OpenFAST, compiled as a 64-bit application using single precision at commit v3.5.1
 linked with  NWTC Subroutine Library; ElastoDyn; InflowWind; AeroDyn; ServoDyn; HydroDyn; MoorDyn (v2.0.0, 2023-09-18)

Description from the FAST input file: CCT-9 Campign 4 model. Input files to be run with OpenFAST 3.5.0. GitHub branch from Lu Wang (https://github.com/luwang00/openfast/tree/dev) compiled on March 7, 2023.

Simulation information:
   Simulation time:                  1003.7500 s
   Rotor Speed:                         0.7074 rad/s
   Azimuth:                             1.8400 rad
   Wind Speed:                          8.0000 m/s
   Number of continuous states:         0
   Number of discrete states:           0
   Number of constraint states:         0
   Number of inputs:                   54
   Number of outputs:                   0
   Jacobians included in this file?    No

Order of inputs:
     Column   Operating Point                     Rotating Frame? Derivative Order Description
   ---------- ---------------                     --------------- ---------------- -----------
          1    4.427E+00                                 F               0         CoupledKinematics X translation displacement, node 1, m
          2    3.228E-01                                 F               0         CoupledKinematics Y translation displacement, node 1, m
          3   -4.764E+00                                 F               0         CoupledKinematics Z translation displacement, node 1, m
          4    4.384E+00                                 F               0         CoupledKinematics X translation displacement, node 2, m
          5    2.208E-01                                 F               0         CoupledKinematics Y translation displacement, node 2, m
          6   -1.880E-01                                 F               0         CoupledKinematics Z translation displacement, node 2, m
          7    4.718E+00                                 F               0         CoupledKinematics X translation displacement, node 3, m
          8   -9.387E-02                                 F               0         CoupledKinematics Y translation displacement, node 3, m
          9    4.964E+00                                 F               0         CoupledKinematics Z translation displacement, node 3, m
         10    9.965E-01,  4.115E-03, -8.373E-02         F               0         CoupledKinematics X orientation angle, node 1, rad
         11   -4.412E-04,  9.990E-01,  4.385E-02         F               0         CoupledKinematics Y orientation angle, node 1, rad
         12    8.383E-02, -4.366E-02,  9.955E-01         F               0         CoupledKinematics Z orientation angle, node 1, rad
         13    9.965E-01,  4.115E-03, -8.373E-02         F               0         CoupledKinematics X orientation angle, node 2, rad
         14   -4.412E-04,  9.990E-01,  4.385E-02         F               0         CoupledKinematics Y orientation angle, node 2, rad
         15    8.383E-02, -4.366E-02,  9.955E-01         F               0         CoupledKinematics Z orientation angle, node 2, rad
         16    9.965E-01,  4.115E-03, -8.373E-02         F               0         CoupledKinematics X orientation angle, node 3, rad
         17   -4.412E-04,  9.990E-01,  4.385E-02         F               0         CoupledKinematics Y orientation angle, node 3, rad
         18    8.383E-02, -4.366E-02,  9.955E-01         F               0         CoupledKinematics Z orientation angle, node 3, rad
         19   -1.178E-04                                 F               0         CoupledKinematics X translation velocity, node 1, m/s
         20   -7.125E-04                                 F               0         CoupledKinematics Y translation velocity, node 1, m/s
         21   -1.137E-03                                 F               0         CoupledKinematics Z translation velocity, node 1, m/s
         22   -1.928E-04                                 F               0         CoupledKinematics X translation velocity, node 2, m/s
         23   -5.254E-04                                 F               0         CoupledKinematics Y translation velocity, node 2, m/s
         24   -5.357E-03                                 F               0         CoupledKinematics Z translation velocity, node 2, m/s
         25   -1.368E-04                                 F               0         CoupledKinematics X translation velocity, node 3, m/s
         26   -3.879E-04                                 F               0         CoupledKinematics Y translation velocity, node 3, m/s
         27   -3.015E-03                                 F               0         CoupledKinematics Z translation velocity, node 3, m/s
         28   -4.103E-05                                 F               0         CoupledKinematics X rotation velocity, node 1, rad/s
         29    2.446E-06                                 F               0         CoupledKinematics Y rotation velocity, node 1, rad/s
         30    8.376E-07                                 F               0         CoupledKinematics Z rotation velocity, node 1, rad/s
         31   -4.103E-05                                 F               0         CoupledKinematics X rotation velocity, node 2, rad/s
         32    2.446E-06                                 F               0         CoupledKinematics Y rotation velocity, node 2, rad/s
         33    8.376E-07                                 F               0         CoupledKinematics Z rotation velocity, node 2, rad/s
         34   -4.103E-05                                 F               0         CoupledKinematics X rotation velocity, node 3, rad/s
         35    2.446E-06                                 F               0         CoupledKinematics Y rotation velocity, node 3, rad/s
         36    8.376E-07                                 F               0         CoupledKinematics Z rotation velocity, node 3, rad/s
         37    3.547E-05                                 F               0         CoupledKinematics X translation acceleration, node 1, m/s^2
         38    2.971E-05                                 F               0         CoupledKinematics Y translation acceleration, node 1, m/s^2
         39   -7.290E-04                                 F               0         CoupledKinematics Z translation acceleration, node 1, m/s^2
         40   -7.520E-05                                 F               0         CoupledKinematics X translation acceleration, node 2, m/s^2
         41   -3.004E-05                                 F               0         CoupledKinematics Y translation acceleration, node 2, m/s^2
         42    5.927E-04                                 F               0         CoupledKinematics Z translation acceleration, node 2, m/s^2
         43    3.673E-05                                 F               0         CoupledKinematics X translation acceleration, node 3, m/s^2
         44   -2.202E-04                                 F               0         CoupledKinematics Y translation acceleration, node 3, m/s^2
         45    5.945E-04                                 F               0         CoupledKinematics Z translation acceleration, node 3, m/s^2
         46    1.279E-05                                 F               0         CoupledKinematics X rotation acceleration, node 1, rad/s^2
         47    7.538E-06                                 F               0         CoupledKinematics Y rotation acceleration, node 1, rad/s^2
         48    1.411E-06                                 F               0         CoupledKinematics Z rotation acceleration, node 1, rad/s^2
         49    1.279E-05                                 F               0         CoupledKinematics X rotation acceleration, node 2, rad/s^2
         50    7.538E-06                                 F               0         CoupledKinematics Y rotation acceleration, node 2, rad/s^2
         51    1.411E-06                                 F               0         CoupledKinematics Z rotation acceleration, node 2, rad/s^2
         52    1.279E-05                                 F               0         CoupledKinematics X rotation acceleration, node 3, rad/s^2
         53    7.538E-06                                 F               0         CoupledKinematics Y rotation acceleration, node 3, rad/s^2
         54    1.411E-06                                 F               0         CoupledKinematics Z rotation acceleration, node 3, rad/s^2


Linearized state matrices:

