
Linearized model: Predictions were generated on 08-Jan-2024 at 09:43:14 using OpenFAST, compiled as a 64-bit application using single precision at commit v3.5.1
 linked with  NWTC Subroutine Library; ElastoDyn; InflowWind; AeroDyn; ServoDyn; HydroDyn; MoorDyn (v2.0.0, 2023-09-18)

Description from the FAST input file: CCT-9 Campign 4 model. Input files to be run with OpenFAST 3.5.0. GitHub branch from Lu Wang (https://github.com/luwang00/openfast/tree/dev) compiled on March 7, 2023.

Simulation information:
   Simulation time:                  1001.2500 s
   Rotor Speed:                         0.7074 rad/s
   Azimuth:                             0.0715 rad
   Wind Speed:                          8.0000 m/s
   Number of continuous states:         0
   Number of discrete states:           0
   Number of constraint states:         0
   Number of inputs:                 1746
   Number of outputs:                   4
   Jacobians included in this file?    No

Order of inputs:
     Column   Operating Point                     Rotating Frame? Derivative Order Description
   ---------- ---------------                     --------------- ---------------- -----------
          1    7.251E+00                                 F               0         Tower X translation displacement, node 1, m
          2   -1.280E+00                                 F               0         Tower Y translation displacement, node 1, m
          3   -1.488E-01                                 F               0         Tower Z translation displacement, node 1, m
          4    8.293E+00                                 F               0         Tower X translation displacement, node 2, m
          5   -1.822E+00                                 F               0         Tower Y translation displacement, node 2, m
          6   -2.048E-01                                 F               0         Tower Z translation displacement, node 2, m
          7    9.351E+00                                 F               0         Tower X translation displacement, node 3, m
          8   -2.370E+00                                 F               0         Tower Y translation displacement, node 3, m
          9   -2.623E-01                                 F               0         Tower Z translation displacement, node 3, m
         10    1.042E+01                                 F               0         Tower X translation displacement, node 4, m
         11   -2.922E+00                                 F               0         Tower Y translation displacement, node 4, m
         12   -3.211E-01                                 F               0         Tower Z translation displacement, node 4, m
         13    1.150E+01                                 F               0         Tower X translation displacement, node 5, m
         14   -3.478E+00                                 F               0         Tower Y translation displacement, node 5, m
         15   -3.809E-01                                 F               0         Tower Z translation displacement, node 5, m
         16    1.259E+01                                 F               0         Tower X translation displacement, node 6, m
         17   -4.036E+00                                 F               0         Tower Y translation displacement, node 6, m
         18   -4.414E-01                                 F               0         Tower Z translation displacement, node 6, m
         19    1.368E+01                                 F               0         Tower X translation displacement, node 7, m
         20   -4.597E+00                                 F               0         Tower Y translation displacement, node 7, m
         21   -5.025E-01                                 F               0         Tower Z translation displacement, node 7, m
         22    1.477E+01                                 F               0         Tower X translation displacement, node 8, m
         23   -5.160E+00                                 F               0         Tower Y translation displacement, node 8, m
         24   -5.640E-01                                 F               0         Tower Z translation displacement, node 8, m
         25    1.587E+01                                 F               0         Tower X translation displacement, node 9, m
         26   -5.725E+00                                 F               0         Tower Y translation displacement, node 9, m
         27   -6.259E-01                                 F               0         Tower Z translation displacement, node 9, m
         28    1.697E+01                                 F               0         Tower X translation displacement, node 10, m
         29   -6.290E+00                                 F               0         Tower Y translation displacement, node 10, m
         30   -6.879E-01                                 F               0         Tower Z translation displacement, node 10, m
         31    1.807E+01                                 F               0         Tower X translation displacement, node 11, m
         32   -6.856E+00                                 F               0         Tower Y translation displacement, node 11, m
         33   -7.500E-01                                 F               0         Tower Z translation displacement, node 11, m
         34    9.965E-01,  4.117E-03, -8.374E-02         F               0         Tower X orientation angle, node 1, rad
         35   -4.341E-04,  9.990E-01,  4.396E-02         F               0         Tower Y orientation angle, node 1, rad
         36    8.384E-02, -4.377E-02,  9.955E-01         F               0         Tower Z orientation angle, node 1, rad
         37    9.964E-01,  4.171E-03, -8.494E-02         F               0         Tower X orientation angle, node 2, rad
         38   -4.004E-04,  9.990E-01,  4.435E-02         F               0         Tower Y orientation angle, node 2, rad
         39    8.504E-02, -4.416E-02,  9.954E-01         F               0         Tower Z orientation angle, node 2, rad
         40    9.963E-01,  4.217E-03, -8.598E-02         F               0         Tower X orientation angle, node 3, rad
         41   -3.698E-04,  9.990E-01,  4.471E-02         F               0         Tower Y orientation angle, node 3, rad
         42    8.608E-02, -4.451E-02,  9.953E-01         F               0         Tower Z orientation angle, node 3, rad
         43    9.962E-01,  4.255E-03, -8.684E-02         F               0         Tower X orientation angle, node 4, rad
         44   -3.429E-04,  9.990E-01,  4.502E-02         F               0         Tower Y orientation angle, node 4, rad
         45    8.694E-02, -4.482E-02,  9.952E-01         F               0         Tower Z orientation angle, node 4, rad
         46    9.962E-01,  4.286E-03, -8.752E-02         F               0         Tower X orientation angle, node 5, rad
         47   -3.195E-04,  9.990E-01,  4.529E-02         F               0         Tower Y orientation angle, node 5, rad
         48    8.763E-02, -4.509E-02,  9.951E-01         F               0         Tower Z orientation angle, node 5, rad
         49    9.961E-01,  4.310E-03, -8.804E-02         F               0         Tower X orientation angle, node 6, rad
         50   -2.999E-04,  9.990E-01,  4.551E-02         F               0         Tower Y orientation angle, node 6, rad
         51    8.815E-02, -4.531E-02,  9.951E-01         F               0         Tower Z orientation angle, node 6, rad
         52    9.961E-01,  4.327E-03, -8.842E-02         F               0         Tower X orientation angle, node 7, rad
         53   -2.841E-04,  9.990E-01,  4.569E-02         F               0         Tower Y orientation angle, node 7, rad
         54    8.852E-02, -4.549E-02,  9.950E-01         F               0         Tower Z orientation angle, node 7, rad
         55    9.961E-01,  4.339E-03, -8.867E-02         F               0         Tower X orientation angle, node 8, rad
         56   -2.719E-04,  9.989E-01,  4.583E-02         F               0         Tower Y orientation angle, node 8, rad
         57    8.878E-02, -4.562E-02,  9.950E-01         F               0         Tower Z orientation angle, node 8, rad
         58    9.960E-01,  4.347E-03, -8.883E-02         F               0         Tower X orientation angle, node 9, rad
         59   -2.629E-04,  9.989E-01,  4.593E-02         F               0         Tower Y orientation angle, node 9, rad
         60    8.894E-02, -4.572E-02,  9.950E-01         F               0         Tower Z orientation angle, node 9, rad
         61    9.960E-01,  4.351E-03, -8.892E-02         F               0         Tower X orientation angle, node 10, rad
         62   -2.570E-04,  9.989E-01,  4.600E-02         F               0         Tower Y orientation angle, node 10, rad
         63    8.903E-02, -4.579E-02,  9.950E-01         F               0         Tower Z orientation angle, node 10, rad
         64    9.960E-01,  4.353E-03, -8.896E-02         F               0         Tower X orientation angle, node 11, rad
         65   -2.538E-04,  9.989E-01,  4.603E-02         F               0         Tower Y orientation angle, node 11, rad
         66    8.907E-02, -4.583E-02,  9.950E-01         F               0         Tower Z orientation angle, node 11, rad
         67   -2.242E-04                                 F               0         Tower X translation velocity, node 1, m/s
         68    6.859E-04                                 F               0         Tower Y translation velocity, node 1, m/s
         69   -2.616E-03                                 F               0         Tower Z translation velocity, node 1, m/s
         70   -2.685E-04                                 F               0         Tower X translation velocity, node 2, m/s
         71    1.054E-03                                 F               0         Tower Y translation velocity, node 2, m/s
         72   -2.596E-03                                 F               0         Tower Z translation velocity, node 2, m/s
         73   -3.236E-04                                 F               0         Tower X translation velocity, node 3, m/s
         74    1.419E-03                                 F               0         Tower Y translation velocity, node 3, m/s
         75   -2.575E-03                                 F               0         Tower Z translation velocity, node 3, m/s
         76   -3.877E-04                                 F               0         Tower X translation velocity, node 4, m/s
         77    1.784E-03                                 F               0         Tower Y translation velocity, node 4, m/s
         78   -2.553E-03                                 F               0         Tower Z translation velocity, node 4, m/s
         79   -4.603E-04                                 F               0         Tower X translation velocity, node 5, m/s
         80    2.146E-03                                 F               0         Tower Y translation velocity, node 5, m/s
         81   -2.530E-03                                 F               0         Tower Z translation velocity, node 5, m/s
         82   -5.404E-04                                 F               0         Tower X translation velocity, node 6, m/s
         83    2.506E-03                                 F               0         Tower Y translation velocity, node 6, m/s
         84   -2.507E-03                                 F               0         Tower Z translation velocity, node 6, m/s
         85   -6.268E-04                                 F               0         Tower X translation velocity, node 7, m/s
         86    2.865E-03                                 F               0         Tower Y translation velocity, node 7, m/s
         87   -2.483E-03                                 F               0         Tower Z translation velocity, node 7, m/s
         88   -7.191E-04                                 F               0         Tower X translation velocity, node 8, m/s
         89    3.222E-03                                 F               0         Tower Y translation velocity, node 8, m/s
         90   -2.458E-03                                 F               0         Tower Z translation velocity, node 8, m/s
         91   -8.161E-04                                 F               0         Tower X translation velocity, node 9, m/s
         92    3.578E-03                                 F               0         Tower Y translation velocity, node 9, m/s
         93   -2.433E-03                                 F               0         Tower Z translation velocity, node 9, m/s
         94   -9.167E-04                                 F               0         Tower X translation velocity, node 10, m/s
         95    3.933E-03                                 F               0         Tower Y translation velocity, node 10, m/s
         96   -2.408E-03                                 F               0         Tower Z translation velocity, node 10, m/s
         97   -1.020E-03                                 F               0         Tower X translation velocity, node 11, m/s
         98    4.287E-03                                 F               0         Tower Y translation velocity, node 11, m/s
         99   -2.382E-03                                 F               0         Tower Z translation velocity, node 11, m/s
        100    1.881E+01                                 F               0         Hub X translation displacement, node 1, m
        101   -7.263E+00                                 F               0         Hub Y translation displacement, node 1, m
        102    1.713E-01                                 F               0         Hub Z translation displacement, node 1, m
        103    9.813E-01,  9.119E-03, -1.925E-01         F               0         Hub X orientation angle, node 1, rad
        104    1.352E-02,  9.932E-01,  1.160E-01         F               0         Hub Y orientation angle, node 1, rad
        105    1.922E-01, -1.164E-01,  9.744E-01         F               0         Hub Z orientation angle, node 1, rad
        106    6.942E-01                                 F               0         Hub X rotation velocity, node 1, rad/s
        107    6.443E-03                                 F               0         Hub Y rotation velocity, node 1, rad/s
        108   -1.362E-01                                 F               0         Hub Z rotation velocity, node 1, rad/s
        109    9.804E-01, -2.035E-02, -1.958E-01         F               0         Blade root 1 X orientation angle, node 1, rad
        110    4.262E-02,  9.930E-01,  1.102E-01         F               0         Blade root 1 Y orientation angle, node 1, rad
        111    1.922E-01, -1.164E-01,  9.744E-01         F               0         Blade root 1 Z orientation angle, node 1, rad
        112    9.761E-01,  2.684E-02, -2.157E-01         F               0         Blade root 2 X orientation angle, node 1, rad
        113    1.887E-01, -5.968E-01,  7.798E-01         F               0         Blade root 2 Y orientation angle, node 1, rad
        114   -1.078E-01, -8.019E-01, -5.876E-01         F               0         Blade root 2 Z orientation angle, node 1, rad
        115    9.860E-01,  2.086E-02, -1.656E-01         F               0         Blade root 3 X orientation angle, node 1, rad
        116   -1.440E-01, -3.953E-01, -9.072E-01         F               0         Blade root 3 Y orientation angle, node 1, rad
        117   -8.440E-02,  9.183E-01, -3.868E-01         F               0         Blade root 3 Z orientation angle, node 1, rad
        118    1.930E+01                                 F               0         Blade 1 X translation displacement, node 1, m
        119   -7.908E+00                                 F               0         Blade 1 Y translation displacement, node 1, m
        120    6.001E-02                                 F               0         Blade 1 Z translation displacement, node 1, m
        121    1.942E+01                                 F               0         Blade 1 X translation displacement, node 2, m
        122   -8.063E+00                                 F               0         Blade 1 Y translation displacement, node 2, m
        123    3.318E-02                                 F               0         Blade 1 Z translation displacement, node 2, m
        124    2.101E+01                                 F               0         Blade 1 X translation displacement, node 3, m
        125   -1.018E+01                                 F               0         Blade 1 Y translation displacement, node 3, m
        126   -3.316E-01                                 F               0         Blade 1 Z translation displacement, node 3, m
        127    2.135E+01                                 F               0         Blade 1 X translation displacement, node 4, m
        128   -1.063E+01                                 F               0         Blade 1 Y translation displacement, node 4, m
        129   -4.093E-01                                 F               0         Blade 1 Z translation displacement, node 4, m
        130    2.169E+01                                 F               0         Blade 1 X translation displacement, node 5, m
        131   -1.108E+01                                 F               0         Blade 1 Y translation displacement, node 5, m
        132   -4.871E-01                                 F               0         Blade 1 Z translation displacement, node 5, m
        133    2.203E+01                                 F               0         Blade 1 X translation displacement, node 6, m
        134   -1.153E+01                                 F               0         Blade 1 Y translation displacement, node 6, m
        135   -5.648E-01                                 F               0         Blade 1 Z translation displacement, node 6, m
        136    2.236E+01                                 F               0         Blade 1 X translation displacement, node 7, m
        137   -1.198E+01                                 F               0         Blade 1 Y translation displacement, node 7, m
        138   -6.425E-01                                 F               0         Blade 1 Z translation displacement, node 7, m
        139    2.270E+01                                 F               0         Blade 1 X translation displacement, node 8, m
        140   -1.243E+01                                 F               0         Blade 1 Y translation displacement, node 8, m
        141   -7.203E-01                                 F               0         Blade 1 Z translation displacement, node 8, m
        142    2.304E+01                                 F               0         Blade 1 X translation displacement, node 9, m
        143   -1.288E+01                                 F               0         Blade 1 Y translation displacement, node 9, m
        144   -7.980E-01                                 F               0         Blade 1 Z translation displacement, node 9, m
        145    2.338E+01                                 F               0         Blade 1 X translation displacement, node 10, m
        146   -1.333E+01                                 F               0         Blade 1 Y translation displacement, node 10, m
        147   -8.757E-01                                 F               0         Blade 1 Z translation displacement, node 10, m
        148    2.372E+01                                 F               0         Blade 1 X translation displacement, node 11, m
        149   -1.378E+01                                 F               0         Blade 1 Y translation displacement, node 11, m
        150   -9.534E-01                                 F               0         Blade 1 Z translation displacement, node 11, m
        151    2.406E+01                                 F               0         Blade 1 X translation displacement, node 12, m
        152   -1.423E+01                                 F               0         Blade 1 Y translation displacement, node 12, m
        153   -1.031E+00                                 F               0         Blade 1 Z translation displacement, node 12, m
        154    2.440E+01                                 F               0         Blade 1 X translation displacement, node 13, m
        155   -1.468E+01                                 F               0         Blade 1 Y translation displacement, node 13, m
        156   -1.109E+00                                 F               0         Blade 1 Z translation displacement, node 13, m
        157    2.474E+01                                 F               0         Blade 1 X translation displacement, node 14, m
        158   -1.513E+01                                 F               0         Blade 1 Y translation displacement, node 14, m
        159   -1.187E+00                                 F               0         Blade 1 Z translation displacement, node 14, m
        160    2.508E+01                                 F               0         Blade 1 X translation displacement, node 15, m
        161   -1.558E+01                                 F               0         Blade 1 Y translation displacement, node 15, m
        162   -1.264E+00                                 F               0         Blade 1 Z translation displacement, node 15, m
        163    2.542E+01                                 F               0         Blade 1 X translation displacement, node 16, m
        164   -1.603E+01                                 F               0         Blade 1 Y translation displacement, node 16, m
        165   -1.342E+00                                 F               0         Blade 1 Z translation displacement, node 16, m
        166    2.576E+01                                 F               0         Blade 1 X translation displacement, node 17, m
        167   -1.648E+01                                 F               0         Blade 1 Y translation displacement, node 17, m
        168   -1.420E+00                                 F               0         Blade 1 Z translation displacement, node 17, m
        169    2.610E+01                                 F               0         Blade 1 X translation displacement, node 18, m
        170   -1.693E+01                                 F               0         Blade 1 Y translation displacement, node 18, m
        171   -1.498E+00                                 F               0         Blade 1 Z translation displacement, node 18, m
        172    2.643E+01                                 F               0         Blade 1 X translation displacement, node 19, m
        173   -1.738E+01                                 F               0         Blade 1 Y translation displacement, node 19, m
        174   -1.575E+00                                 F               0         Blade 1 Z translation displacement, node 19, m
        175    2.677E+01                                 F               0         Blade 1 X translation displacement, node 20, m
        176   -1.783E+01                                 F               0         Blade 1 Y translation displacement, node 20, m
        177   -1.653E+00                                 F               0         Blade 1 Z translation displacement, node 20, m
        178    2.711E+01                                 F               0         Blade 1 X translation displacement, node 21, m
        179   -1.828E+01                                 F               0         Blade 1 Y translation displacement, node 21, m
        180   -1.731E+00                                 F               0         Blade 1 Z translation displacement, node 21, m
        181    2.745E+01                                 F               0         Blade 1 X translation displacement, node 22, m
        182   -1.873E+01                                 F               0         Blade 1 Y translation displacement, node 22, m
        183   -1.808E+00                                 F               0         Blade 1 Z translation displacement, node 22, m
        184    2.779E+01                                 F               0         Blade 1 X translation displacement, node 23, m
        185   -1.918E+01                                 F               0         Blade 1 Y translation displacement, node 23, m
        186   -1.886E+00                                 F               0         Blade 1 Z translation displacement, node 23, m
        187    2.813E+01                                 F               0         Blade 1 X translation displacement, node 24, m
        188   -1.963E+01                                 F               0         Blade 1 Y translation displacement, node 24, m
        189   -1.964E+00                                 F               0         Blade 1 Z translation displacement, node 24, m
        190    2.847E+01                                 F               0         Blade 1 X translation displacement, node 25, m
        191   -2.008E+01                                 F               0         Blade 1 Y translation displacement, node 25, m
        192   -2.042E+00                                 F               0         Blade 1 Z translation displacement, node 25, m
        193    2.881E+01                                 F               0         Blade 1 X translation displacement, node 26, m
        194   -2.053E+01                                 F               0         Blade 1 Y translation displacement, node 26, m
        195   -2.119E+00                                 F               0         Blade 1 Z translation displacement, node 26, m
        196    2.915E+01                                 F               0         Blade 1 X translation displacement, node 27, m
        197   -2.098E+01                                 F               0         Blade 1 Y translation displacement, node 27, m
        198   -2.197E+00                                 F               0         Blade 1 Z translation displacement, node 27, m
        199    2.944E+01                                 F               0         Blade 1 X translation displacement, node 28, m
        200   -2.136E+01                                 F               0         Blade 1 Y translation displacement, node 28, m
        201   -2.263E+00                                 F               0         Blade 1 Z translation displacement, node 28, m
        202    8.531E-01, -4.709E-01, -2.245E-01         F               0         Blade 1 X orientation angle, node 1, rad
        203    4.850E-01,  8.745E-01,  8.773E-03         F               0         Blade 1 Y orientation angle, node 1, rad
        204    1.922E-01, -1.164E-01,  9.744E-01         F               0         Blade 1 Z orientation angle, node 1, rad
        205    8.531E-01, -4.709E-01, -2.245E-01         F               0         Blade 1 X orientation angle, node 2, rad
        206    4.850E-01,  8.745E-01,  8.773E-03         F               0         Blade 1 Y orientation angle, node 2, rad
        207    1.922E-01, -1.164E-01,  9.744E-01         F               0         Blade 1 Z orientation angle, node 2, rad
        208    9.438E-01, -2.503E-01, -2.161E-01         F               0         Blade 1 X orientation angle, node 3, rad
        209    2.690E-01,  9.612E-01,  6.174E-02         F               0         Blade 1 Y orientation angle, node 3, rad
        210    1.922E-01, -1.164E-01,  9.744E-01         F               0         Blade 1 Z orientation angle, node 3, rad
        211    9.543E-01, -2.094E-01, -2.133E-01         F               0         Blade 1 X orientation angle, node 4, rad
        212    2.289E-01,  9.709E-01,  7.081E-02         F               0         Blade 1 Y orientation angle, node 4, rad
        213    1.922E-01, -1.164E-01,  9.744E-01         F               0         Blade 1 Z orientation angle, node 4, rad
        214    9.613E-01, -1.771E-01, -2.108E-01         F               0         Blade 1 X orientation angle, node 5, rad
        215    1.971E-01,  9.773E-01,  7.784E-02         F               0         Blade 1 Y orientation angle, node 5, rad
        216    1.922E-01, -1.164E-01,  9.744E-01         F               0         Blade 1 Z orientation angle, node 5, rad
        217    9.662E-01, -1.512E-01, -2.087E-01         F               0         Blade 1 X orientation angle, node 6, rad
        218    1.716E-01,  9.816E-01,  8.341E-02         F               0         Blade 1 Y orientation angle, node 6, rad
        219    1.922E-01, -1.164E-01,  9.744E-01         F               0         Blade 1 Z orientation angle, node 6, rad
        220    9.697E-01, -1.297E-01, -2.068E-01         F               0         Blade 1 X orientation angle, node 7, rad
        221    1.505E-01,  9.847E-01,  8.794E-02         F               0         Blade 1 Y orientation angle, node 7, rad
        222    1.922E-01, -1.164E-01,  9.744E-01         F               0         Blade 1 Z orientation angle, node 7, rad
        223    9.723E-01, -1.118E-01, -2.052E-01         F               0         Blade 1 X orientation angle, node 8, rad
        224    1.328E-01,  9.869E-01,  9.168E-02         F               0         Blade 1 Y orientation angle, node 8, rad
        225    1.922E-01, -1.164E-01,  9.744E-01         F               0         Blade 1 Z orientation angle, node 8, rad
        226    9.742E-01, -9.664E-02, -2.037E-01         F               0         Blade 1 X orientation angle, node 9, rad
        227    1.179E-01,  9.885E-01,  9.482E-02         F               0         Blade 1 Y orientation angle, node 9, rad