
Linearized model: Predictions were generated on 08-Jan-2024 at 09:43:14 using OpenFAST, compiled as a 64-bit application using single precision at commit v3.5.1
 linked with  NWTC Subroutine Library; ElastoDyn; InflowWind; AeroDyn; ServoDyn; HydroDyn; MoorDyn (v2.0.0, 2023-09-18)

Description from the FAST input file: CCT-9 Campign 4 model. Input files to be run with OpenFAST 3.5.0. GitHub branch from Lu Wang (https://github.com/luwang00/openfast/tree/dev) compiled on March 7, 2023.

Simulation information:
   Simulation time:                  1000.2500 s
   Rotor Speed:                         0.7076 rad/s
   Azimuth:                             5.6472 rad
   Wind Speed:                          8.0000 m/s
   Number of continuous states:         0
   Number of discrete states:           0
   Number of constraint states:         0
   Number of inputs:                 1746
   Number of outputs:                   4
   Jacobians included in this file?    No

Order of inputs:
     Column   Operating Point                     Rotating Frame? Derivative Order Description
   ---------- ---------------                     --------------- ---------------- -----------
          1    7.251E+00                                 F               0         Tower X translation displacement, node 1, m
          2   -1.280E+00                                 F               0         Tower Y translation displacement, node 1, m
          3   -1.465E-01                                 F               0         Tower Z translation displacement, node 1, m
          4    8.294E+00                                 F               0         Tower X translation displacement, node 2, m
          5   -1.823E+00                                 F               0         Tower Y translation displacement, node 2, m
          6   -2.025E-01                                 F               0         Tower Z translation displacement, node 2, m
          7    9.351E+00                                 F               0         Tower X translation displacement, node 3, m
          8   -2.371E+00                                 F               0         Tower Y translation displacement, node 3, m
          9   -2.601E-01                                 F               0         Tower Z translation displacement, node 3, m
         10    1.042E+01                                 F               0         Tower X translation displacement, node 4, m
         11   -2.923E+00                                 F               0         Tower Y translation displacement, node 4, m
         12   -3.189E-01                                 F               0         Tower Z translation displacement, node 4, m
         13    1.150E+01                                 F               0         Tower X translation displacement, node 5, m
         14   -3.479E+00                                 F               0         Tower Y translation displacement, node 5, m
         15   -3.787E-01                                 F               0         Tower Z translation displacement, node 5, m
         16    1.259E+01                                 F               0         Tower X translation displacement, node 6, m
         17   -4.038E+00                                 F               0         Tower Y translation displacement, node 6, m
         18   -4.392E-01                                 F               0         Tower Z translation displacement, node 6, m
         19    1.368E+01                                 F               0         Tower X translation displacement, node 7, m
         20   -4.599E+00                                 F               0         Tower Y translation displacement, node 7, m
         21   -5.003E-01                                 F               0         Tower Z translation displacement, node 7, m
         22    1.477E+01                                 F               0         Tower X translation displacement, node 8, m
         23   -5.162E+00                                 F               0         Tower Y translation displacement, node 8, m
         24   -5.619E-01                                 F               0         Tower Z translation displacement, node 8, m
         25    1.587E+01                                 F               0         Tower X translation displacement, node 9, m
         26   -5.727E+00                                 F               0         Tower Y translation displacement, node 9, m
         27   -6.237E-01                                 F               0         Tower Z translation displacement, node 9, m
         28    1.697E+01                                 F               0         Tower X translation displacement, node 10, m
         29   -6.293E+00                                 F               0         Tower Y translation displacement, node 10, m
         30   -6.858E-01                                 F               0         Tower Z translation displacement, node 10, m
         31    1.807E+01                                 F               0         Tower X translation displacement, node 11, m
         32   -6.859E+00                                 F               0         Tower Y translation displacement, node 11, m
         33   -7.479E-01                                 F               0         Tower Z translation displacement, node 11, m
         34    9.965E-01,  4.117E-03, -8.374E-02         F               0         Tower X orientation angle, node 1, rad
         35   -4.318E-04,  9.990E-01,  4.398E-02         F               0         Tower Y orientation angle, node 1, rad
         36    8.384E-02, -4.379E-02,  9.955E-01         F               0         Tower Z orientation angle, node 1, rad
         37    9.964E-01,  4.170E-03, -8.495E-02         F               0         Tower X orientation angle, node 2, rad
         38   -3.981E-04,  9.990E-01,  4.437E-02         F               0         Tower Y orientation angle, node 2, rad
         39    8.505E-02, -4.418E-02,  9.954E-01         F               0         Tower Z orientation angle, node 2, rad
         40    9.963E-01,  4.217E-03, -8.599E-02         F               0         Tower X orientation angle, node 3, rad
         41   -3.675E-04,  9.990E-01,  4.473E-02         F               0         Tower Y orientation angle, node 3, rad
         42    8.609E-02, -4.453E-02,  9.953E-01         F               0         Tower Z orientation angle, node 3, rad
         43    9.962E-01,  4.255E-03, -8.684E-02         F               0         Tower X orientation angle, node 4, rad
         44   -3.405E-04,  9.990E-01,  4.504E-02         F               0         Tower Y orientation angle, node 4, rad
         45    8.695E-02, -4.484E-02,  9.952E-01         F               0         Tower Z orientation angle, node 4, rad
         46    9.962E-01,  4.286E-03, -8.753E-02         F               0         Tower X orientation angle, node 5, rad
         47   -3.172E-04,  9.990E-01,  4.531E-02         F               0         Tower Y orientation angle, node 5, rad
         48    8.763E-02, -4.510E-02,  9.951E-01         F               0         Tower Z orientation angle, node 5, rad
         49    9.961E-01,  4.310E-03, -8.805E-02         F               0         Tower X orientation angle, node 6, rad
         50   -2.976E-04,  9.990E-01,  4.553E-02         F               0         Tower Y orientation angle, node 6, rad
         51    8.815E-02, -4.533E-02,  9.951E-01         F               0         Tower Z orientation angle, node 6, rad
         52    9.961E-01,  4.327E-03, -8.842E-02         F               0         Tower X orientation angle, node 7, rad
         53   -2.818E-04,  9.990E-01,  4.571E-02         F               0         Tower Y orientation angle, node 7, rad
         54    8.853E-02, -4.550E-02,  9.950E-01         F               0         Tower Z orientation angle, node 7, rad
         55    9.961E-01,  4.339E-03, -8.868E-02         F               0         Tower X orientation angle, node 8, rad
         56   -2.696E-04,  9.989E-01,  4.585E-02         F               0         Tower Y orientation angle, node 8, rad
         57    8.878E-02, -4.564E-02,  9.950E-01         F               0         Tower Z orientation angle, node 8, rad
         58    9.960E-01,  4.346E-03, -8.884E-02         F               0         Tower X orientation angle, node 9, rad
         59   -2.606E-04,  9.989E-01,  4.595E-02         F               0         Tower Y orientation angle, node 9, rad
         60    8.894E-02, -4.574E-02,  9.950E-01         F               0         Tower Z orientation angle, node 9, rad
         61    9.960E-01,  4.350E-03, -8.893E-02         F               0         Tower X orientation angle, node 10, rad
         62   -2.548E-04,  9.989E-01,  4.602E-02         F               0         Tower Y orientation angle, node 10, rad
         63    8.903E-02, -4.581E-02,  9.950E-01         F               0         Tower Z orientation angle, node 10, rad
         64    9.960E-01,  4.352E-03, -8.897E-02         F               0         Tower X orientation angle, node 11, rad
         65   -2.515E-04,  9.989E-01,  4.605E-02         F               0         Tower Y orientation angle, node 11, rad
         66    8.907E-02, -4.585E-02,  9.950E-01         F               0         Tower Z orientation angle, node 11, rad
         67   -3.804E-04                                 F               0         Tower X translation velocity, node 1, m/s
         68    1.164E-04                                 F               0         Tower Y translation velocity, node 1, m/s
         69   -1.885E-03                                 F               0         Tower Z translation velocity, node 1, m/s
         70   -4.764E-04                                 F               0         Tower X translation velocity, node 2, m/s
         71    2.169E-04                                 F               0         Tower Y translation velocity, node 2, m/s
         72   -1.873E-03                                 F               0         Tower Z translation velocity, node 2, m/s
         73   -5.590E-04                                 F               0         Tower X translation velocity, node 3, m/s
         74    3.211E-04                                 F               0         Tower Y translation velocity, node 3, m/s
         75   -1.861E-03                                 F               0         Tower Z translation velocity, node 3, m/s
         76   -6.291E-04                                 F               0         Tower X translation velocity, node 4, m/s
         77    4.283E-04                                 F               0         Tower Y translation velocity, node 4, m/s
         78   -1.850E-03                                 F               0         Tower Z translation velocity, node 4, m/s
         79   -6.863E-04                                 F               0         Tower X translation velocity, node 5, m/s
         80    5.379E-04                                 F               0         Tower Y translation velocity, node 5, m/s
         81   -1.840E-03                                 F               0         Tower Z translation velocity, node 5, m/s
         82   -7.307E-04                                 F               0         Tower X translation velocity, node 6, m/s
         83    6.496E-04                                 F               0         Tower Y translation velocity, node 6, m/s
         84   -1.831E-03                                 F               0         Tower Z translation velocity, node 6, m/s
         85   -7.639E-04                                 F               0         Tower X translation velocity, node 7, m/s
         86    7.630E-04                                 F               0         Tower Y translation velocity, node 7, m/s
         87   -1.823E-03                                 F               0         Tower Z translation velocity, node 7, m/s
         88   -7.858E-04                                 F               0         Tower X translation velocity, node 8, m/s
         89    8.777E-04                                 F               0         Tower Y translation velocity, node 8, m/s
         90   -1.816E-03                                 F               0         Tower Z translation velocity, node 8, m/s
         91   -7.981E-04                                 F               0         Tower X translation velocity, node 9, m/s
         92    9.934E-04                                 F               0         Tower Y translation velocity, node 9, m/s
         93   -1.809E-03                                 F               0         Tower Z translation velocity, node 9, m/s
         94   -8.028E-04                                 F               0         Tower X translation velocity, node 10, m/s
         95    1.110E-03                                 F               0         Tower Y translation velocity, node 10, m/s
         96   -1.804E-03                                 F               0         Tower Z translation velocity, node 10, m/s
         97   -8.024E-04                                 F               0         Tower X translation velocity, node 11, m/s
         98    1.227E-03                                 F               0         Tower Y translation velocity, node 11, m/s
         99   -1.798E-03                                 F               0         Tower Z translation velocity, node 11, m/s
        100    1.881E+01                                 F               0         Hub X translation displacement, node 1, m
        101   -7.266E+00                                 F               0         Hub Y translation displacement, node 1, m
        102    1.735E-01                                 F               0         Hub Z translation displacement, node 1, m
        103    9.813E-01,  9.121E-03, -1.925E-01         F               0         Hub X orientation angle, node 1, rad
        104   -1.147E-01,  8.304E-01, -5.452E-01         F               0         Hub Y orientation angle, node 1, rad
        105    1.549E-01,  5.570E-01,  8.159E-01         F               0         Hub Z orientation angle, node 1, rad
        106    6.943E-01                                 F               0         Hub X rotation velocity, node 1, rad/s
        107    6.454E-03                                 F               0         Hub Y rotation velocity, node 1, rad/s
        108   -1.362E-01                                 F               0         Hub Z rotation velocity, node 1, rad/s
        109    9.842E-01, -1.552E-02, -1.762E-01         F               0         Blade root 1 X orientation angle, node 1, rad
        110   -8.550E-02,  8.303E-01, -5.506E-01         F               0         Blade root 1 Y orientation angle, node 1, rad
        111    1.549E-01,  5.570E-01,  8.159E-01         F               0         Blade root 1 Z orientation angle, node 1, rad
        112    9.751E-01,  7.124E-03, -2.214E-01         F               0         Blade root 2 X orientation angle, node 1, rad
        113    2.205E-01,  6.742E-02,  9.731E-01         F               0         Blade root 2 Y orientation angle, node 1, rad
        114    2.186E-02, -9.977E-01,  6.418E-02         F               0         Blade root 2 Z orientation angle, node 1, rad
        115    9.831E-01,  3.575E-02, -1.795E-01         F               0         Blade root 3 X orientation angle, node 1, rad
        116   -4.765E-02, -8.970E-01, -4.395E-01         F               0         Blade root 3 Y orientation angle, node 1, rad
        117   -1.767E-01,  4.407E-01, -8.801E-01         F               0         Blade root 3 Z orientation angle, node 1, rad
        118    1.909E+01                                 F               0         Blade 1 X translation displacement, node 1, m
        119   -4.180E+00                                 F               0         Blade 1 Y translation displacement, node 1, m
        120   -8.159E-01                                 F               0         Blade 1 Z translation displacement, node 1, m
        121    1.916E+01                                 F               0         Blade 1 X translation displacement, node 2, m
        122   -3.436E+00                                 F               0         Blade 1 Y translation displacement, node 2, m
        123   -1.054E+00                                 F               0         Blade 1 Z translation displacement, node 2, m
        124    2.007E+01                                 F               0         Blade 1 X translation displacement, node 3, m
        125    6.675E+00                                 F               0         Blade 1 Y translation displacement, node 3, m
        126   -4.296E+00                                 F               0         Blade 1 Z translation displacement, node 3, m
        127    2.027E+01                                 F               0         Blade 1 X translation displacement, node 4, m
        128    8.829E+00                                 F               0         Blade 1 Y translation displacement, node 4, m
        129   -4.987E+00                                 F               0         Blade 1 Z translation displacement, node 4, m
        130    2.046E+01                                 F               0         Blade 1 X translation displacement, node 5, m
        131    1.098E+01                                 F               0         Blade 1 Y translation displacement, node 5, m
        132   -5.678E+00                                 F               0         Blade 1 Z translation displacement, node 5, m
        133    2.066E+01                                 F               0         Blade 1 X translation displacement, node 6, m
        134    1.314E+01                                 F               0         Blade 1 Y translation displacement, node 6, m
        135   -6.369E+00                                 F               0         Blade 1 Z translation displacement, node 6, m
        136    2.085E+01                                 F               0         Blade 1 X translation displacement, node 7, m
        137    1.529E+01                                 F               0         Blade 1 Y translation displacement, node 7, m
        138   -7.059E+00                                 F               0         Blade 1 Z translation displacement, node 7, m
        139    2.105E+01                                 F               0         Blade 1 X translation displacement, node 8, m
        140    1.745E+01                                 F               0         Blade 1 Y translation displacement, node 8, m
        141   -7.750E+00                                 F               0         Blade 1 Z translation displacement, node 8, m
        142    2.124E+01                                 F               0         Blade 1 X translation displacement, node 9, m
        143    1.960E+01                                 F               0         Blade 1 Y translation displacement, node 9, m
        144   -8.441E+00                                 F               0         Blade 1 Z translation displacement, node 9, m
        145    2.144E+01                                 F               0         Blade 1 X translation displacement, node 10, m
        146    2.176E+01                                 F               0         Blade 1 Y translation displacement, node 10, m
        147   -9.132E+00                                 F               0         Blade 1 Z translation displacement, node 10, m
        148    2.163E+01                                 F               0         Blade 1 X translation displacement, node 11, m
        149    2.391E+01                                 F               0         Blade 1 Y translation displacement, node 11, m
        150   -9.822E+00                                 F               0         Blade 1 Z translation displacement, node 11, m
        151    2.183E+01                                 F               0         Blade 1 X translation displacement, node 12, m
        152    2.607E+01                                 F               0         Blade 1 Y translation displacement, node 12, m
        153   -1.051E+01                                 F               0         Blade 1 Z translation displacement, node 12, m
        154    2.202E+01                                 F               0         Blade 1 X translation displacement, node 13, m
        155    2.822E+01                                 F               0         Blade 1 Y translation displacement, node 13, m
        156   -1.120E+01                                 F               0         Blade 1 Z translation displacement, node 13, m
        157    2.222E+01                                 F               0         Blade 1 X translation displacement, node 14, m
        158    3.037E+01                                 F               0         Blade 1 Y translation displacement, node 14, m
        159   -1.189E+01                                 F               0         Blade 1 Z translation displacement, node 14, m
        160    2.241E+01                                 F               0         Blade 1 X translation displacement, node 15, m
        161    3.253E+01                                 F               0         Blade 1 Y translation displacement, node 15, m
        162   -1.259E+01                                 F               0         Blade 1 Z translation displacement, node 15, m
        163    2.261E+01                                 F               0         Blade 1 X translation displacement, node 16, m
        164    3.468E+01                                 F               0         Blade 1 Y translation displacement, node 16, m
        165   -1.328E+01                                 F               0         Blade 1 Z translation displacement, node 16, m
        166    2.280E+01                                 F               0         Blade 1 X translation displacement, node 17, m
        167    3.684E+01                                 F               0         Blade 1 Y translation displacement, node 17, m
        168   -1.397E+01                                 F               0         Blade 1 Z translation displacement, node 17, m
        169    2.299E+01                                 F               0         Blade 1 X translation displacement, node 18, m
        170    3.899E+01                                 F               0         Blade 1 Y translation displacement, node 18, m
        171   -1.466E+01                                 F               0         Blade 1 Z translation displacement, node 18, m
        172    2.319E+01                                 F               0         Blade 1 X translation displacement, node 19, m
        173    4.115E+01                                 F               0         Blade 1 Y translation displacement, node 19, m
        174   -1.535E+01                                 F               0         Blade 1 Z translation displacement, node 19, m
        175    2.338E+01                                 F               0         Blade 1 X translation displacement, node 20, m
        176    4.330E+01                                 F               0         Blade 1 Y translation displacement, node 20, m
        177   -1.604E+01                                 F               0         Blade 1 Z translation displacement, node 20, m
        178    2.358E+01                                 F               0         Blade 1 X translation displacement, node 21, m
        179    4.545E+01                                 F               0         Blade 1 Y translation displacement, node 21, m
        180   -1.673E+01                                 F               0         Blade 1 Z translation displacement, node 21, m
        181    2.377E+01                                 F               0         Blade 1 X translation displacement, node 22, m
        182    4.761E+01                                 F               0         Blade 1 Y translation displacement, node 22, m
        183   -1.742E+01                                 F               0         Blade 1 Z translation displacement, node 22, m
        184    2.397E+01                                 F               0         Blade 1 X translation displacement, node 23, m
        185    4.976E+01                                 F               0         Blade 1 Y translation displacement, node 23, m
        186   -1.811E+01                                 F               0         Blade 1 Z translation displacement, node 23, m
        187    2.416E+01                                 F               0         Blade 1 X translation displacement, node 24, m
        188    5.192E+01                                 F               0         Blade 1 Y translation displacement, node 24, m
        189   -1.880E+01                                 F               0         Blade 1 Z translation displacement, node 24, m
        190    2.436E+01                                 F               0         Blade 1 X translation displacement, node 25, m
        191    5.407E+01                                 F               0         Blade 1 Y translation displacement, node 25, m
        192   -1.949E+01                                 F               0         Blade 1 Z translation displacement, node 25, m
        193    2.455E+01                                 F               0         Blade 1 X translation displacement, node 26, m
        194    5.623E+01                                 F               0         Blade 1 Y translation displacement, node 26, m
        195   -2.018E+01                                 F               0         Blade 1 Z translation displacement, node 26, m
        196    2.475E+01                                 F               0         Blade 1 X translation displacement, node 27, m
        197    5.838E+01                                 F               0         Blade 1 Y translation displacement, node 27, m
        198   -2.087E+01                                 F               0         Blade 1 Z translation displacement, node 27, m
        199    2.491E+01                                 F               0         Blade 1 X translation displacement, node 28, m
        200    6.021E+01                                 F               0         Blade 1 Y translation displacement, node 28, m
        201   -2.146E+01                                 F               0         Blade 1 Z translation displacement, node 28, m
        202    9.149E-01, -3.925E-01,  9.427E-02         F               0         Blade 1 X orientation angle, node 1, rad
        203    3.727E-01,  7.319E-01, -5.704E-01         F               0         Blade 1 Y orientation angle, node 1, rad
        204    1.549E-01,  5.570E-01,  8.159E-01         F               0         Blade 1 Z orientation angle, node 1, rad
        205    9.149E-01, -3.925E-01,  9.427E-02         F               0         Blade 1 X orientation angle, node 2, rad
        206    3.727E-01,  7.319E-01, -5.704E-01         F               0         Blade 1 Y orientation angle, node 2, rad
        207    1.549E-01,  5.570E-01,  8.159E-01         F               0         Blade 1 Z orientation angle, node 2, rad
        208    9.772E-01, -2.078E-01, -4.361E-02         F               0         Blade 1 X orientation angle, node 3, rad
        209    1.453E-01,  8.041E-01, -5.765E-01         F               0         Blade 1 Y orientation angle, node 3, rad
        210    1.549E-01,  5.570E-01,  8.159E-01         F               0         Blade 1 Z orientation angle, node 3, rad
        211    9.825E-01, -1.737E-01, -6.792E-02         F               0         Blade 1 X orientation angle, node 4, rad
        212    1.039E-01,  8.121E-01, -5.742E-01         F               0         Blade 1 Y orientation angle, node 4, rad
        213    1.549E-01,  5.570E-01,  8.159E-01         F               0         Blade 1 Z orientation angle, node 4, rad
        214    9.854E-01, -1.467E-01, -8.692E-02         F               0         Blade 1 X orientation angle, node 5, rad
        215    7.124E-02,  8.174E-01, -5.716E-01         F               0         Blade 1 Y orientation angle, node 5, rad
        216    1.549E-01,  5.570E-01,  8.159E-01         F               0         Blade 1 Z orientation angle, node 5, rad
        217    9.869E-01, -1.249E-01, -1.020E-01         F               0         Blade 1 X orientation angle, node 6, rad
        218    4.508E-02,  8.210E-01, -5.691E-01         F               0         Blade 1 Y orientation angle, node 6, rad
        219    1.549E-01,  5.570E-01,  8.159E-01         F               0         Blade 1 Z orientation angle, node 6, rad
        220    9.877E-01, -1.070E-01, -1.144E-01         F               0         Blade 1 X orientation angle, node 7, rad
        221    2.354E-02,  8.236E-01, -5.667E-01         F               0         Blade 1 Y orientation angle, node 7, rad
        222    1.549E-01,  5.570E-01,  8.159E-01         F               0         Blade 1 Z orientation angle, node 7, rad
        223    9.879E-01, -9.201E-02, -1.247E-01         F               0         Blade 1 X orientation angle, node 8, rad
        224    5.607E-03,  8.254E-01, -5.646E-01         F               0         Blade 1 Y orientation angle, node 8, rad
        225    1.549E-01,  5.570E-01,  8.159E-01         F               0         Blade 1 Z orientation angle, node 8, rad
        226    9.879E-01, -7.932E-02, -1.334E-01         F               0         Blade 1 X orientation angle, node 9, rad
        227   -9.567E-03,  8.267E-01, -5.626E-01         F               0         Blade 1 Y orientation angle, node 9, rad