
Linearized model: Predictions were generated on 20-Feb-2024 at 08:38:00 using OpenFAST, compiled as a 64-bit application using single precision at commit v3.5.1
 linked with  NWTC Subroutine Library; ElastoDyn; InflowWind; AeroDyn; ServoDyn; HydroDyn; MAP++ (<1.20.10>, <Oct-20-2023>)

Description from the FAST input file: CCT-9 Campign 4 model. Input files to be run with OpenFAST 3.5.0. GitHub branch from Lu Wang (https://github.com/luwang00/openfast/tree/dev) compiled on March 7, 2023.

Simulation information:
   Simulation time:                   890.8250 s
   Rotor Speed:                         0.7919 rad/s
   Azimuth:                             1.0495 rad
   Wind Speed:                         24.0000 m/s
   Number of continuous states:        18
   Number of discrete states:           0
   Number of constraint states:         0
   Number of inputs:                    6
   Number of outputs:                  25
   Jacobians included in this file?    No

Order of continuous states:
   Row/Column Operating Point                                                   Rotating Frame? Derivative Order Description
   ---------- ---------------                                                   --------------- ---------------- -----------
          1     6.83840560913E+000                                                     F               2         Platform horizontal surge translation DOF (internal DOF index = DOF_Sg), m
          2    -8.20023536682E-001                                                     F               2         Platform horizontal sway translation DOF (internal DOF index = DOF_Sw), m
          3    -1.31751567125E-001                                                     F               2         Platform vertical heave translation DOF (internal DOF index = DOF_Hv), m
          4     5.41391149163E-002                                                     F               2         Platform roll tilt rotation DOF (internal DOF index = DOF_R), rad
          5     9.52511876822E-002                                                     F               2         Platform pitch tilt rotation DOF (internal DOF index = DOF_P), rad
          6    -9.22052748501E-003                                                     F               2         Platform yaw rotation DOF (internal DOF index = DOF_Y), rad
          7     5.39252579212E-001                                                     F               2         1st tower fore-aft bending mode DOF (internal DOF index = DOF_TFA1), m
          8     2.55980134010E-001                                                     F               2         1st tower side-to-side bending mode DOF (internal DOF index = DOF_TSS1), m
          9     5.76191329956E+000                                                     F               2         Variable speed generator DOF (internal DOF index = DOF_GeAz), rad
         10     2.30603944510E-003                                                     F               2         First time derivative of Platform horizontal surge translation DOF (internal DOF index = DOF_Sg), m/s
         11     9.84743237495E-004                                                     F               2         First time derivative of Platform horizontal sway translation DOF (internal DOF index = DOF_Sw), m/s
         12     2.14401329868E-003                                                     F               2         First time derivative of Platform vertical heave translation DOF (internal DOF index = DOF_Hv), m/s
         13     4.68764983452E-006                                                     F               2         First time derivative of Platform roll tilt rotation DOF (internal DOF index = DOF_R), rad/s
         14     2.08987316000E-004                                                     F               2         First time derivative of Platform pitch tilt rotation DOF (internal DOF index = DOF_P), rad/s
         15     1.27679077195E-005                                                     F               2         First time derivative of Platform yaw rotation DOF (internal DOF index = DOF_Y), rad/s
         16    -4.62489202619E-002                                                     F               2         First time derivative of 1st tower fore-aft bending mode DOF (internal DOF index = DOF_TFA1), m/s
         17    -1.13976588182E-004                                                     F               2         First time derivative of 1st tower side-to-side bending mode DOF (internal DOF index = DOF_TSS1), m/s
         18     7.91933178902E-001                                                     F               2         First time derivative of Variable speed generator DOF (internal DOF index = DOF_GeAz), rad/s

Order of continuous state derivatives:
   Row/Column Operating Point                                                   Rotating Frame? Derivative Order Description
   ---------- ---------------                                                   --------------- ---------------- -----------
          1     2.30603944510E-003                                                     F               2         First time derivative of Platform horizontal surge translation DOF (internal DOF index = DOF_Sg), m/s
          2     9.84743237495E-004                                                     F               2         First time derivative of Platform horizontal sway translation DOF (internal DOF index = DOF_Sw), m/s
          3     2.14401329868E-003                                                     F               2         First time derivative of Platform vertical heave translation DOF (internal DOF index = DOF_Hv), m/s
          4     4.68764983452E-006                                                     F               2         First time derivative of Platform roll tilt rotation DOF (internal DOF index = DOF_R), rad/s
          5     2.08987316000E-004                                                     F               2         First time derivative of Platform pitch tilt rotation DOF (internal DOF index = DOF_P), rad/s
          6     1.27679077195E-005                                                     F               2         First time derivative of Platform yaw rotation DOF (internal DOF index = DOF_Y), rad/s
          7    -4.62489202619E-002                                                     F               2         First time derivative of 1st tower fore-aft bending mode DOF (internal DOF index = DOF_TFA1), m/s
          8    -1.13976588182E-004                                                     F               2         First time derivative of 1st tower side-to-side bending mode DOF (internal DOF index = DOF_TSS1), m/s
          9     7.91933178902E-001                                                     F               2         First time derivative of Variable speed generator DOF (internal DOF index = DOF_GeAz), rad/s
         10    -4.23032836989E-003                                                     F               2         First time derivative of First time derivative of Platform horizontal surge translation DOF (internal DOF index = DOF_Sg), m/s/s
         11     4.99867927283E-003                                                     F               2         First time derivative of First time derivative of Platform horizontal sway translation DOF (internal DOF index = DOF_Sw), m/s/s
         12     1.60159682855E-003                                                     F               2         First time derivative of First time derivative of Platform vertical heave translation DOF (internal DOF index = DOF_Hv), m/s/s
         13    -2.79198138742E-004                                                     F               2         First time derivative of First time derivative of Platform roll tilt rotation DOF (internal DOF index = DOF_R), rad/s/s
         14    -2.55730265053E-004                                                     F               2         First time derivative of First time derivative of Platform pitch tilt rotation DOF (internal DOF index = DOF_P), rad/s/s
         15    -1.16560277093E-005                                                     F               2         First time derivative of First time derivative of Platform yaw rotation DOF (internal DOF index = DOF_Y), rad/s/s
         16     5.62520623207E-002                                                     F               2         First time derivative of First time derivative of 1st tower fore-aft bending mode DOF (internal DOF index = DOF_TFA1), m/s/s
         17     6.23020231724E-002                                                     F               2         First time derivative of First time derivative of 1st tower side-to-side bending mode DOF (internal DOF index = DOF_TSS1), m/s/s
         18    -1.18653278332E-003                                                     F               2         First time derivative of First time derivative of Variable speed generator DOF (internal DOF index = DOF_GeAz), rad/s/s

Order of inputs:
     Column   Operating Point                                                   Rotating Frame? Derivative Order Description
   ---------- ---------------                                                   --------------- ---------------- -----------
          1     2.94772922993E-001                                                     T               0         Blade 1 pitch command, rad
          2     2.94772922993E-001                                                     T               0         Blade 2 pitch command, rad
          3     2.94772922993E-001                                                     T               0         Blade 3 pitch command, rad
          4     0.00000000000E+000                                                     F               0         Yaw moment, Nm
          5     1.86691280000E+007                                                     F               0         Generator torque, Nm
          6     2.94772922993E-001                                                     F               0         Extended input: collective blade-pitch command, rad

Order of outputs:
        Row   Operating Point                                                   Rotating Frame? Derivative Order Description
   ---------- ---------------                                                   --------------- ---------------- -----------
          1     7.56240463257E+000                                                     F               0         GenSpeed, (rpm)
          2     7.56240463257E+000                                                     F               0         RotSpeed, (rpm)
          3     1.86691289062E+004                                                     F               0         RotTorq, (kN-m)
          4     2.50155786133E+003                                                     F               0         RotThrust, (kN)
          5     1.18842187500E+005                                                     F               0         TwrBsMxt, (kN-m)
          6     2.93717437500E+005                                                     F               0         TwrBsMyt, (kN-m)
          7    -7.42993603516E+003                                                     F               0         TwrBsMzt, (kN-m)
          8     2.98013891602E+003                                                     F               0         TwrBsFxt, (kN)
          9    -9.25110290527E+002                                                     F               0         TwrBsFyt, (kN)
         10    -1.80203378906E+004                                                     F               0         TwrBsFzt, (kN)
         11     6.83840560913E+000                                                     F               0         PtfmSurge, (m)
         12    -8.20023536682E-001                                                     F               0         PtfmSway, (m)
         13    -1.31751567125E-001                                                     F               0         PtfmHeave, (m)
         14     3.10194253922E+000                                                     F               0         PtfmRoll, (deg)
         15     5.45749044418E+000                                                     F               0         PtfmPitch, (deg)
         16    -5.28297245502E-001                                                     F               0         PtfmYaw, (deg)
         17     5.39252579212E-001                                                     F               0         TTDspFA, (m)
         18    -2.55980134010E-001                                                     F               0         TTDspSS, (m)
         19    -4.39620995894E-003                                                     F               0         PtfmTAxt, (m/s^2)
         20     5.02711953595E-003                                                     F               0         PtfmTAyt, (m/s^2)
         21     9.21408412978E-004                                                     F               0         PtfmTAzt, (m/s^2)
         22    -1.57640352845E-002                                                     F               0         PtfmRAxt, (deg/s^2)
         23    -1.48535072803E-002                                                     F               0         PtfmRAyt, (deg/s^2)
         24    -1.37962040026E-003                                                     F               0         PtfmRAzt, (deg/s^2)
         25     1.50612760335E-002                                                     F               0         YawBrTAxp, (m/s^2)


Linearized state matrices:

A: 18 x 18
     0.00000000000E+000   0.00000000000E+000   0.00000000000E+000   0.00000000000E+000   0.00000000000E+000   0.00000000000E+000   0.00000000000E+000   0.00000000000E+000   0.00000000000E+000   1.00000000000E+000   0.00000000000E+000   0.00000000000E+000   0.00000000000E+000   0.00000000000E+000   0.00000000000E+000   0.00000000000E+000   0.00000000000E+000   0.00000000000E+000
     0.00000000000E+000   0.00000000000E+000   0.00000000000E+000   0.00000000000E+000   0.00000000000E+000   0.00000000000E+000   0.00000000000E+000   0.00000000000E+000   0.00000000000E+000   0.00000000000E+000   1.00000000000E+000   0.00000000000E+000   0.00000000000E+000   0.00000000000E+000   0.00000000000E+000   0.00000000000E+000   0.00000000000E+000   0.00000000000E+000
     0.00000000000E+000   0.00000000000E+000   0.00000000000E+000   0.00000000000E+000   0.00000000000E+000   0.00000000000E+000   0.00000000000E+000   0.00000000000E+000   0.00000000000E+000   0.00000000000E+000   0.00000000000E+000   1.00000000000E+000   0.00000000000E+000   0.00000000000E+000   0.00000000000E+000   0.00000000000E+000   0.00000000000E+000   0.00000000000E+000
     0.00000000000E+000   0.00000000000E+000   0.00000000000E+000   0.00000000000E+000   0.00000000000E+000   0.00000000000E+000   0.00000000000E+000   0.00000000000E+000   0.00000000000E+000   0.00000000000E+000   0.00000000000E+000   0.00000000000E+000   1.00000000000E+000   0.00000000000E+000   0.00000000000E+000   0.00000000000E+000   0.00000000000E+000   0.00000000000E+000
     0.00000000000E+000   0.00000000000E+000   0.00000000000E+000   0.00000000000E+000   0.00000000000E+000   0.00000000000E+000   0.00000000000E+000   0.00000000000E+000   0.00000000000E+000   0.00000000000E+000   0.00000000000E+000   0.00000000000E+000   0.00000000000E+000   1.00000000000E+000   0.00000000000E+000   0.00000000000E+000   0.00000000000E+000   0.00000000000E+000
     0.00000000000E+000   0.00000000000E+000   0.00000000000E+000   0.00000000000E+000   0.00000000000E+000   0.00000000000E+000   0.00000000000E+000   0.00000000000E+000   0.00000000000E+000   0.00000000000E+000   0.00000000000E+000   0.00000000000E+000   0.00000000000E+000   0.00000000000E+000   1.00000000000E+000   0.00000000000E+000   0.00000000000E+000   0.00000000000E+000
     0.00000000000E+000   0.00000000000E+000   0.00000000000E+000   0.00000000000E+000   0.00000000000E+000   0.00000000000E+000   0.00000000000E+000   0.00000000000E+000   0.00000000000E+000   0.00000000000E+000   0.00000000000E+000   0.00000000000E+000   0.00000000000E+000   0.00000000000E+000   0.00000000000E+000   1.00000000000E+000   0.00000000000E+000   0.00000000000E+000
     0.00000000000E+000   0.00000000000E+000   0.00000000000E+000   0.00000000000E+000   0.00000000000E+000   0.00000000000E+000   0.00000000000E+000   0.00000000000E+000   0.00000000000E+000   0.00000000000E+000   0.00000000000E+000   0.00000000000E+000   0.00000000000E+000   0.00000000000E+000   0.00000000000E+000   0.00000000000E+000   1.00000000000E+000   0.00000000000E+000
     0.00000000000E+000   0.00000000000E+000   0.00000000000E+000   0.00000000000E+000   0.00000000000E+000   0.00000000000E+000   0.00000000000E+000   0.00000000000E+000   0.00000000000E+000   0.00000000000E+000   0.00000000000E+000   0.00000000000E+000   0.00000000000E+000   0.00000000000E+000   0.00000000000E+000   0.00000000000E+000   0.00000000000E+000   1.00000000000E+000
     0.00000000000E+000   0.00000000000E+000   0.00000000000E+000   2.49907176289E-002  -3.03368434178E+000   2.01035269626E-001   7.23075185970E-001  -8.23013435901E-003  -1.10079156834E-002   0.00000000000E+000   0.00000000000E+000   0.00000000000E+000   1.49328117037E-001  -7.05010854267E-002   7.13950192361E-001   2.48515541574E-003   9.69667782637E-004  -1.69501019256E-004
     0.00000000000E+000   0.00000000000E+000   0.00000000000E+000   3.47243012465E+000   1.99497492567E-003   4.80140778752E-001  -7.18897999574E-003  -8.28805373782E-001   1.56334593738E-004   0.00000000000E+000   0.00000000000E+000   0.00000000000E+000  -6.75117933320E-004   5.62246824973E-002  -1.64849745069E-003   6.60407669591E-004  -3.28566415900E-003  -1.04495144682E-004
     0.00000000000E+000   0.00000000000E+000   0.00000000000E+000   6.94123933793E-002   1.25303038560E-001   1.37695207245E-003  -2.94149411224E-002  -1.59100457380E-002   5.17527752404E-004   0.00000000000E+000   0.00000000000E+000   0.00000000000E+000  -5.85297880620E-003  -1.98526482304E-003  -3.21872933247E-002  -1.07741028319E-004  -9.08105199847E-005   9.40758618462E-004
     0.00000000000E+000   0.00000000000E+000   0.00000000000E+000  -2.11202281599E-001  -6.73762266747E-004  -2.96975967347E-002   5.08222036420E-004   4.96515743355E-002  -8.99327256825E-006   0.00000000000E+000   0.00000000000E+000   0.00000000000E+000   8.92112143680E-005   7.89274942620E-004   4.74679878112E-004   1.20292655711E-005   1.95516850259E-004   1.20127461519E-006
     0.00000000000E+000   0.00000000000E+000   0.00000000000E+000   1.11305493232E-003  -1.83228489070E-001   1.41755631281E-002   4.27731921695E-002  -4.36866379486E-004  -4.93231563727E-004   0.00000000000E+000   0.00000000000E+000   0.00000000000E+000   6.66792076361E-003  -4.45038718197E-003   3.19294240498E-002   1.35157586186E-004   4.31921448564E-005  -1.06283830983E-005
     0.00000000000E+000   0.00000000000E+000   0.00000000000E+000   2.78991986815E-002  -8.50907365057E-003   1.92129497769E-003   2.11381632137E-003  -2.63437917425E-003  -3.60259615776E-005   0.00000000000E+000   0.00000000000E+000   0.00000000000E+000   9.14209082253E-004   5.16358617113E-002   4.38974055022E-003   6.47787336994E-004  -9.19500633477E-006  -2.51982472004E-005
     0.00000000000E+000   0.00000000000E+000   0.00000000000E+000  -3.56181881070E-003   3.75918585063E+001  -2.45097019354E+000  -8.97058931533E+000  -8.27301543833E-004   1.39652600585E-001   0.00000000000E+000   0.00000000000E+000   0.00000000000E+000  -1.89506589202E+000   5.00098338948E-001  -9.08029243027E+000  -3.55863712515E-002  -1.26851951984E-002   4.87069439653E-003
     0.00000000000E+000   0.00000000000E+000   0.00000000000E+000   4.30408774437E+001  -3.33704227148E-001   6.00655289814E+000  -4.13944099164E-003  -1.02672651207E+001   5.69949786453E-003   0.00000000000E+000   0.00000000000E+000   0.00000000000E+000   6.56611641601E-003   9.19115771861E-001  -1.86323551454E-002   1.12949160010E-002  -4.05880294437E-002  -1.71381283758E-003
     0.00000000000E+000   0.00000000000E+000   0.00000000000E+000  -3.14794707974E-001   1.45404519507E-002  -4.38481266307E-002   1.80908385396E-004   7.66813347962E-002   1.08398633596E-004   0.00000000000E+000   0.00000000000E+000   0.00000000000E+000  -8.74256667519E-005  -1.44420744347E-003   1.50632503558E-004  -1.76111649297E-005   3.04088915780E-004   1.47448364393E-005
B: 18 x 6
     0.00000000000E+000   0.00000000000E+000   0.00000000000E+000   0.00000000000E+000   0.00000000000E+000   0.00000000000E+000
     0.00000000000E+000   0.00000000000E+000   0.00000000000E+000   0.00000000000E+000   0.00000000000E+000   0.00000000000E+000
     0.00000000000E+000   0.00000000000E+000   0.00000000000E+000   0.00000000000E+000   0.00000000000E+000   0.00000000000E+000
     0.00000000000E+000   0.00000000000E+000   0.00000000000E+000   0.00000000000E+000   0.00000000000E+000   0.00000000000E+000
     0.00000000000E+000   0.00000000000E+000   0.00000000000E+000   0.00000000000E+000   0.00000000000E+000   0.00000000000E+000
     0.00000000000E+000   0.00000000000E+000   0.00000000000E+000   0.00000000000E+000   0.00000000000E+000   0.00000000000E+000
     0.00000000000E+000   0.00000000000E+000   0.00000000000E+000   0.00000000000E+000   0.00000000000E+000   0.00000000000E+000
     0.00000000000E+000   0.00000000000E+000   0.00000000000E+000   0.00000000000E+000   0.00000000000E+000   0.00000000000E+000
     0.00000000000E+000   0.00000000000E+000   0.00000000000E+000   0.00000000000E+000   0.00000000000E+000   0.00000000000E+000
     0.00000000000E+000   0.00000000000E+000   0.00000000000E+000   0.00000000000E+000   2.37048601633E-011   0.00000000000E+000
     0.00000000000E+000   0.00000000000E+000   0.00000000000E+000   0.00000000000E+000   1.56603211346E-009   0.00000000000E+000
     0.00000000000E+000   0.00000000000E+000   0.00000000000E+000   0.00000000000E+000   4.22014742583E-011   0.00000000000E+000
     0.00000000000E+000   0.00000000000E+000   0.00000000000E+000   0.00000000000E+000  -7.42055333303E-011   0.00000000000E+000
     0.00000000000E+000   0.00000000000E+000   0.00000000000E+000   0.00000000000E+000   1.31348066567E-012   0.00000000000E+000
     0.00000000000E+000   0.00000000000E+000   0.00000000000E+000   0.00000000000E+000  -9.31412295672E-012   0.00000000000E+000
     0.00000000000E+000   0.00000000000E+000   0.00000000000E+000   0.00000000000E+000   8.53043393574E-012   0.00000000000E+000
     0.00000000000E+000   0.00000000000E+000   0.00000000000E+000   0.00000000000E+000   1.97412762332E-008   0.00000000000E+000
     0.00000000000E+000   0.00000000000E+000   0.00000000000E+000   0.00000000000E+000  -1.66459466495E-009   0.00000000000E+000
C: 25 x 18
     0.00000000000E+000   0.00000000000E+000   0.00000000000E+000   0.00000000000E+000   0.00000000000E+000   0.00000000000E+000   0.00000000000E+000   0.00000000000E+000   0.00000000000E+000   0.00000000000E+000   0.00000000000E+000   0.00000000000E+000   0.00000000000E+000   0.00000000000E+000   0.00000000000E+000   0.00000000000E+000   0.00000000000E+000   9.54929430878E+000
     0.00000000000E+000   0.00000000000E+000   0.00000000000E+000   0.00000000000E+000   0.00000000000E+000   0.00000000000E+000   0.00000000000E+000   0.00000000000E+000   0.00000000000E+000   0.00000000000E+000   0.00000000000E+000   0.00000000000E+000   0.00000000000E+000   0.00000000000E+000   0.00000000000E+000   0.00000000000E+000   0.00000000000E+000   9.54929430878E+000
     0.00000000000E+000   0.00000000000E+000   0.00000000000E+000   2.79764548404E-002   0.00000000000E+000   0.00000000000E+000  -2.26438317680E-002  -2.26438317680E-002   2.79764548404E-002   0.00000000000E+000   0.00000000000E+000   0.00000000000E+000  -2.79764548404E-002  -2.79764548404E-002   0.00000000000E+000   2.26438317680E-002  -2.26438317680E-002  -2.79764548404E-002
     0.00000000000E+000   0.00000000000E+000   0.00000000000E+000  -6.19153916186E+001  -6.34247213572E+002   7.21582711470E+001   1.87483001698E+003   2.61253209023E+000  -4.55141949684E+001   0.00000000000E+000   0.00000000000E+000   0.00000000000E+000   6.13964283813E+002  -1.54136277943E+002   2.94508140105E+003   7.37339771945E+000   4.11551642383E+000  -2.13670173843E+000
     0.00000000000E+000   0.00000000000E+000   0.00000000000E+000   1.68124841081E+005  -1.73319733027E+003   1.59916773042E+004   4.75520467128E+001   4.61253222758E+005  -1.18620168523E+001   0.00000000000E+000   0.00000000000E+000   0.00000000000E+000  -3.36612704639E+002  -2.63514704374E+004  -1.47626156902E+003  -3.25708876151E+002   1.80018462555E+003   1.64501554461E+001
     0.00000000000E+000   0.00000000000E+000   0.00000000000E+000  -1.08996268058E+003   2.05450579505E+005  -7.01559962741E+003   4.50033294692E+005   5.90551132509E+001  -3.58232908940E+003   0.00000000000E+000   0.00000000000E+000   0.00000000000E+000   4.85783161848E+004  -1.22330965493E+004   2.32654884192E+005   1.76585657659E+003   3.26071177459E+002  -9.40008882637E+001
     0.00000000000E+000   0.00000000000E+000   0.00000000000E+000  -2.59410768273E+004   8.67975106714E+003   7.12018260972E+003   4.39007288402E+001   1.85643926291E+004  -1.48268216540E+002   0.00000000000E+000   0.00000000000E+000   0.00000000000E+000   6.38965442681E+003   5.01455627803E+005   2.93701718794E+004   6.20150017204E+003   6.53274546506E+001  -2.37981713100E+002
     0.00000000000E+000   0.00000000000E+000   0.00000000000E+000  -2.36436013970E+001   7.71104533595E+003  -3.06359665786E+002   2.63879610460E+003   1.51430624948E+000  -8.09673573649E+001   0.00000000000E+000   0.00000000000E+000   0.00000000000E+000   1.09818426125E+003  -2.71787761717E+002   5.25940914832E+003   1.10190546341E+001   7.35641484562E+000  -2.08774294246E+000
     0.00000000000E+000   0.00000000000E+000   0.00000000000E+000  -7.04925617685E+003   6.48039605809E+001  -7.02730952229E+002  -1.37278230093E+000  -2.85527184392E+003   3.39214514940E-001   0.00000000000E+000   0.00000000000E+000   0.00000000000E+000   7.47670755609E+000   5.95825049906E+002   3.20164297722E+001   7.36136818382E+000  -1.15915190060E+001  -4.03910066758E-001
     0.00000000000E+000   0.00000000000E+000   0.00000000000E+000   1.24917668508E+003   1.94290883575E+003   1.34482818418E+002   2.46387533467E+002  -7.10110564244E+001  -4.22444468090E+000   0.00000000000E+000   0.00000000000E+000   0.00000000000E+000   8.18870833178E+001  -4.36432695510E+001   3.02117735821E+002   3.84945140056E-001   3.84945140056E-001   1.75412371849E+001
     1.00000006286E+000   0.00000000000E+000   0.00000000000E+000   0.00000000000E+000   0.00000000000E+000   0.00000000000E+000   0.00000000000E+000   0.00000000000E+000   0.00000000000E+000   0.00000000000E+000   0.00000000000E+000   0.00000000000E+000   0.00000000000E+000   0.00000000000E+000   0.00000000000E+000   0.00000000000E+000   0.00000000000E+000   0.00000000000E+000
     0.00000000000E+000   1.00000006286E+000   0.00000000000E+000   0.00000000000E+000   0.00000000000E+000   0.00000000000E+000   0.00000000000E+000   0.00000000000E+000   0.00000000000E+000   0.00000000000E+000   0.00000000000E+000   0.00000000000E+000   0.00000000000E+000   0.00000000000E+000   0.00000000000E+000   0.00000000000E+000   0.00000000000E+000   0.00000000000E+000
     0.00000000000E+000   0.00000000000E+000   1.00000000269E+000   0.00000000000E+000   0.00000000000E+000   0.00000000000E+000   0.00000000000E+000   0.00000000000E+000   0.00000000000E+000   0.00000000000E+000   0.00000000000E+000   0.00000000000E+000   0.00000000000E+000   0.00000000000E+000   0.00000000000E+000   0.00000000000E+000   0.00000000000E+000   0.00000000000E+000
     0.00000000000E+000   0.00000000000E+000   0.00000000000E+000   5.72957760980E+001   0.00000000000E+000   0.00000000000E+000   0.00000000000E+000   0.00000000000E+000   0.00000000000E+000   0.00000000000E+000   0.00000000000E+000   0.00000000000E+000   0.00000000000E+000   0.00000000000E+000   0.00000000000E+000   0.00000000000E+000   0.00000000000E+000   0.00000000000E+000
     0.00000000000E+000   0.00000000000E+000   0.00000000000E+000   0.00000000000E+000   5.72957760980E+001   0.00000000000E+000   0.00000000000E+000   0.00000000000E+000   0.00000000000E+000   0.00000000000E+000   0.00000000000E+000   0.00000000000E+000   0.00000000000E+000   0.00000000000E+000   0.00000000000E+000   0.00000000000E+000   0.00000000000E+000   0.00000000000E+000
     0.00000000000E+000   0.00000000000E+000   0.00000000000E+000   0.00000000000E+000   0.00000000000E+000   5.72957760980E+001   0.00000000000E+000   0.00000000000E+000   0.00000000000E+000   0.00000000000E+000   0.00000000000E+000   0.00000000000E+000   0.00000000000E+000   0.00000000000E+000   0.00000000000E+000   0.00000000000E+000   0.00000000000E+000   0.00000000000E+000
     0.00000000000E+000   0.00000000000E+000   0.00000000000E+000   0.00000000000E+000   0.00000000000E+000   0.00000000000E+000   9.99999720724E-001   0.00000000000E+000   0.00000000000E+000   0.00000000000E+000   0.00000000000E+000   0.00000000000E+000   0.00000000000E+000   0.00000000000E+000   0.00000000000E+000   0.00000000000E+000   0.00000000000E+000   0.00000000000E+000
     0.00000000000E+000   0.00000000000E+000   0.00000000000E+000   0.00000000000E+000   0.00000000000E+000   0.00000000000E+000   0.00000000000E+000  -1.00000006624E+000   0.00000000000E+000   0.00000000000E+000   0.00000000000E+000   0.00000000000E+000   0.00000000000E+000   0.00000000000E+000   0.00000000000E+000   0.00000000000E+000   0.00000000000E+000   0.00000000000E+000