
Linearized model: Predictions were generated on 08-Jan-2024 at 09:43:14 using OpenFAST, compiled as a 64-bit application using single precision at commit v3.5.1
 linked with  NWTC Subroutine Library; ElastoDyn; InflowWind; AeroDyn; ServoDyn; HydroDyn; MoorDyn (v2.0.0, 2023-09-18)

Description from the FAST input file: CCT-9 Campign 4 model. Input files to be run with OpenFAST 3.5.0. GitHub branch from Lu Wang (https://github.com/luwang00/openfast/tree/dev) compiled on March 7, 2023.

Simulation information:
   Simulation time:                  1001.7500 s
   Rotor Speed:                         0.7074 rad/s
   Azimuth:                             0.4252 rad
   Wind Speed:                          8.0000 m/s
   Number of continuous states:         0
   Number of discrete states:           0
   Number of constraint states:         0
   Number of inputs:                  303
   Number of outputs:                   1
   Jacobians included in this file?    No

Order of inputs:
     Column   Operating Point                     Rotating Frame? Derivative Order Description
   ---------- ---------------                     --------------- ---------------- -----------
          1   -1.080E+01                                 F               0         X-component position of node 1 (hub), m
          2    0.000E+00                                 F               0         Y-component position of node 1 (hub), m
          3    1.497E+02                                 F               0         Z-component position of node 1 (hub), m
          4    8.985E+00                                 F               0         X-component position of node 2 (blade 1, node 1), m
          5   -9.771E+00                                 F               0         Y-component position of node 2 (blade 1, node 1), m
          6    1.548E+02                                 F               0         Z-component position of node 2 (blade 1, node 1), m
          7    9.219E+00                                 F               0         X-component position of node 3 (blade 1, node 2), m
          8   -1.038E+01                                 F               0         Y-component position of node 3 (blade 1, node 2), m
          9    1.559E+02                                 F               0         Z-component position of node 3 (blade 1, node 2), m
         10    1.241E+01                                 F               0         X-component position of node 4 (blade 1, node 3), m
         11   -1.860E+01                                 F               0         Y-component position of node 4 (blade 1, node 3), m
         12    1.718E+02                                 F               0         Z-component position of node 4 (blade 1, node 3), m
         13    1.309E+01                                 F               0         X-component position of node 5 (blade 1, node 4), m
         14   -2.035E+01                                 F               0         Y-component position of node 5 (blade 1, node 4), m
         15    1.752E+02                                 F               0         Z-component position of node 5 (blade 1, node 4), m
         16    1.377E+01                                 F               0         X-component position of node 6 (blade 1, node 5), m
         17   -2.211E+01                                 F               0         Y-component position of node 6 (blade 1, node 5), m
         18    1.785E+02                                 F               0         Z-component position of node 6 (blade 1, node 5), m
         19    1.445E+01                                 F               0         X-component position of node 7 (blade 1, node 6), m
         20   -2.386E+01                                 F               0         Y-component position of node 7 (blade 1, node 6), m
         21    1.819E+02                                 F               0         Z-component position of node 7 (blade 1, node 6), m
         22    1.512E+01                                 F               0         X-component position of node 8 (blade 1, node 7), m
         23   -2.561E+01                                 F               0         Y-component position of node 8 (blade 1, node 7), m
         24    1.853E+02                                 F               0         Z-component position of node 8 (blade 1, node 7), m
         25    1.580E+01                                 F               0         X-component position of node 9 (blade 1, node 8), m
         26   -2.737E+01                                 F               0         Y-component position of node 9 (blade 1, node 8), m
         27    1.887E+02                                 F               0         Z-component position of node 9 (blade 1, node 8), m
         28    1.648E+01                                 F               0         X-component position of node 10 (blade 1, node 9), m
         29   -2.912E+01                                 F               0         Y-component position of node 10 (blade 1, node 9), m
         30    1.921E+02                                 F               0         Z-component position of node 10 (blade 1, node 9), m
         31    1.716E+01                                 F               0         X-component position of node 11 (blade 1, node 10), m
         32   -3.087E+01                                 F               0         Y-component position of node 11 (blade 1, node 10), m
         33    1.954E+02                                 F               0         Z-component position of node 11 (blade 1, node 10), m
         34    1.784E+01                                 F               0         X-component position of node 12 (blade 1, node 11), m
         35   -3.262E+01                                 F               0         Y-component position of node 12 (blade 1, node 11), m
         36    1.988E+02                                 F               0         Z-component position of node 12 (blade 1, node 11), m
         37    1.852E+01                                 F               0         X-component position of node 13 (blade 1, node 12), m
         38   -3.438E+01                                 F               0         Y-component position of node 13 (blade 1, node 12), m
         39    2.022E+02                                 F               0         Z-component position of node 13 (blade 1, node 12), m
         40    1.920E+01                                 F               0         X-component position of node 14 (blade 1, node 13), m
         41   -3.613E+01                                 F               0         Y-component position of node 14 (blade 1, node 13), m
         42    2.056E+02                                 F               0         Z-component position of node 14 (blade 1, node 13), m
         43    1.988E+01                                 F               0         X-component position of node 15 (blade 1, node 14), m
         44   -3.788E+01                                 F               0         Y-component position of node 15 (blade 1, node 14), m
         45    2.090E+02                                 F               0         Z-component position of node 15 (blade 1, node 14), m
         46    2.056E+01                                 F               0         X-component position of node 16 (blade 1, node 15), m
         47   -3.964E+01                                 F               0         Y-component position of node 16 (blade 1, node 15), m
         48    2.123E+02                                 F               0         Z-component position of node 16 (blade 1, node 15), m
         49    2.124E+01                                 F               0         X-component position of node 17 (blade 1, node 16), m
         50   -4.139E+01                                 F               0         Y-component position of node 17 (blade 1, node 16), m
         51    2.157E+02                                 F               0         Z-component position of node 17 (blade 1, node 16), m
         52    2.192E+01                                 F               0         X-component position of node 18 (blade 1, node 17), m
         53   -4.314E+01                                 F               0         Y-component position of node 18 (blade 1, node 17), m
         54    2.191E+02                                 F               0         Z-component position of node 18 (blade 1, node 17), m
         55    2.260E+01                                 F               0         X-component position of node 19 (blade 1, node 18), m
         56   -4.489E+01                                 F               0         Y-component position of node 19 (blade 1, node 18), m
         57    2.225E+02                                 F               0         Z-component position of node 19 (blade 1, node 18), m
         58    2.328E+01                                 F               0         X-component position of node 20 (blade 1, node 19), m
         59   -4.665E+01                                 F               0         Y-component position of node 20 (blade 1, node 19), m
         60    2.259E+02                                 F               0         Z-component position of node 20 (blade 1, node 19), m
         61    2.396E+01                                 F               0         X-component position of node 21 (blade 1, node 20), m
         62   -4.840E+01                                 F               0         Y-component position of node 21 (blade 1, node 20), m
         63    2.292E+02                                 F               0         Z-component position of node 21 (blade 1, node 20), m
         64    2.464E+01                                 F               0         X-component position of node 22 (blade 1, node 21), m
         65   -5.015E+01                                 F               0         Y-component position of node 22 (blade 1, node 21), m
         66    2.326E+02                                 F               0         Z-component position of node 22 (blade 1, node 21), m
         67    2.531E+01                                 F               0         X-component position of node 23 (blade 1, node 22), m
         68   -5.190E+01                                 F               0         Y-component position of node 23 (blade 1, node 22), m
         69    2.360E+02                                 F               0         Z-component position of node 23 (blade 1, node 22), m
         70    2.599E+01                                 F               0         X-component position of node 24 (blade 1, node 23), m
         71   -5.366E+01                                 F               0         Y-component position of node 24 (blade 1, node 23), m
         72    2.394E+02                                 F               0         Z-component position of node 24 (blade 1, node 23), m
         73    2.667E+01                                 F               0         X-component position of node 25 (blade 1, node 24), m
         74   -5.541E+01                                 F               0         Y-component position of node 25 (blade 1, node 24), m
         75    2.428E+02                                 F               0         Z-component position of node 25 (blade 1, node 24), m
         76    2.735E+01                                 F               0         X-component position of node 26 (blade 1, node 25), m
         77   -5.716E+01                                 F               0         Y-component position of node 26 (blade 1, node 25), m
         78    2.461E+02                                 F               0         Z-component position of node 26 (blade 1, node 25), m
         79    2.803E+01                                 F               0         X-component position of node 27 (blade 1, node 26), m
         80   -5.892E+01                                 F               0         Y-component position of node 27 (blade 1, node 26), m
         81    2.495E+02                                 F               0         Z-component position of node 27 (blade 1, node 26), m
         82    2.871E+01                                 F               0         X-component position of node 28 (blade 1, node 27), m
         83   -6.067E+01                                 F               0         Y-component position of node 28 (blade 1, node 27), m
         84    2.529E+02                                 F               0         Z-component position of node 28 (blade 1, node 27), m
         85    2.929E+01                                 F               0         X-component position of node 29 (blade 1, node 28), m
         86   -6.215E+01                                 F               0         Y-component position of node 29 (blade 1, node 28), m
         87    2.558E+02                                 F               0         Z-component position of node 29 (blade 1, node 28), m
         88    7.145E+00                                 F               0         X-component position of node 30 (blade 2, node 1), m
         89   -1.028E+01                                 F               0         Y-component position of node 30 (blade 2, node 1), m
         90    1.453E+02                                 F               0         Z-component position of node 30 (blade 2, node 1), m
         91    6.936E+00                                 F               0         X-component position of node 31 (blade 2, node 2), m
         92   -1.101E+01                                 F               0         Y-component position of node 31 (blade 2, node 2), m
         93    1.442E+02                                 F               0         Z-component position of node 31 (blade 2, node 2), m
         94    4.096E+00                                 F               0         X-component position of node 32 (blade 2, node 3), m
         95   -2.091E+01                                 F               0         Y-component position of node 32 (blade 2, node 3), m
         96    1.293E+02                                 F               0         Z-component position of node 32 (blade 2, node 3), m
         97    3.491E+00                                 F               0         X-component position of node 33 (blade 2, node 4), m
         98   -2.302E+01                                 F               0         Y-component position of node 33 (blade 2, node 4), m
         99    1.261E+02                                 F               0         Z-component position of node 33 (blade 2, node 4), m
        100    2.886E+00                                 F               0         X-component position of node 34 (blade 2, node 5), m
        101   -2.513E+01                                 F               0         Y-component position of node 34 (blade 2, node 5), m
        102    1.229E+02                                 F               0         Z-component position of node 34 (blade 2, node 5), m
        103    2.281E+00                                 F               0         X-component position of node 35 (blade 2, node 6), m
        104   -2.724E+01                                 F               0         Y-component position of node 35 (blade 2, node 6), m
        105    1.197E+02                                 F               0         Z-component position of node 35 (blade 2, node 6), m
        106    1.676E+00                                 F               0         X-component position of node 36 (blade 2, node 7), m
        107   -2.935E+01                                 F               0         Y-component position of node 36 (blade 2, node 7), m
        108    1.166E+02                                 F               0         Z-component position of node 36 (blade 2, node 7), m
        109    1.071E+00                                 F               0         X-component position of node 37 (blade 2, node 8), m
        110   -3.146E+01                                 F               0         Y-component position of node 37 (blade 2, node 8), m
        111    1.134E+02                                 F               0         Z-component position of node 37 (blade 2, node 8), m
        112    4.655E-01                                 F               0         X-component position of node 38 (blade 2, node 9), m
        113   -3.357E+01                                 F               0         Y-component position of node 38 (blade 2, node 9), m
        114    1.102E+02                                 F               0         Z-component position of node 38 (blade 2, node 9), m
        115   -1.396E-01                                 F               0         X-component position of node 39 (blade 2, node 10), m
        116   -3.567E+01                                 F               0         Y-component position of node 39 (blade 2, node 10), m
        117    1.070E+02                                 F               0         Z-component position of node 39 (blade 2, node 10), m
        118   -7.447E-01                                 F               0         X-component position of node 40 (blade 2, node 11), m
        119   -3.778E+01                                 F               0         Y-component position of node 40 (blade 2, node 11), m
        120    1.038E+02                                 F               0         Z-component position of node 40 (blade 2, node 11), m
        121   -1.350E+00                                 F               0         X-component position of node 41 (blade 2, node 12), m
        122   -3.989E+01                                 F               0         Y-component position of node 41 (blade 2, node 12), m
        123    1.006E+02                                 F               0         Z-component position of node 41 (blade 2, node 12), m
        124   -1.955E+00                                 F               0         X-component position of node 42 (blade 2, node 13), m
        125   -4.200E+01                                 F               0         Y-component position of node 42 (blade 2, node 13), m
        126    9.745E+01                                 F               0         Z-component position of node 42 (blade 2, node 13), m
        127   -2.560E+00                                 F               0         X-component position of node 43 (blade 2, node 14), m
        128   -4.411E+01                                 F               0         Y-component position of node 43 (blade 2, node 14), m
        129    9.427E+01                                 F               0         Z-component position of node 43 (blade 2, node 14), m
        130   -3.165E+00                                 F               0         X-component position of node 44 (blade 2, node 15), m
        131   -4.622E+01                                 F               0         Y-component position of node 44 (blade 2, node 15), m
        132    9.108E+01                                 F               0         Z-component position of node 44 (blade 2, node 15), m
        133   -3.770E+00                                 F               0         X-component position of node 45 (blade 2, node 16), m
        134   -4.833E+01                                 F               0         Y-component position of node 45 (blade 2, node 16), m
        135    8.790E+01                                 F               0         Z-component position of node 45 (blade 2, node 16), m
        136   -4.376E+00                                 F               0         X-component position of node 46 (blade 2, node 17), m
        137   -5.044E+01                                 F               0         Y-component position of node 46 (blade 2, node 17), m
        138    8.471E+01                                 F               0         Z-component position of node 46 (blade 2, node 17), m
        139   -4.981E+00                                 F               0         X-component position of node 47 (blade 2, node 18), m
        140   -5.255E+01                                 F               0         Y-component position of node 47 (blade 2, node 18), m
        141    8.153E+01                                 F               0         Z-component position of node 47 (blade 2, node 18), m
        142   -5.586E+00                                 F               0         X-component position of node 48 (blade 2, node 19), m
        143   -5.466E+01                                 F               0         Y-component position of node 48 (blade 2, node 19), m
        144    7.834E+01                                 F               0         Z-component position of node 48 (blade 2, node 19), m
        145   -6.191E+00                                 F               0         X-component position of node 49 (blade 2, node 20), m
        146   -5.677E+01                                 F               0         Y-component position of node 49 (blade 2, node 20), m
        147    7.516E+01                                 F               0         Z-component position of node 49 (blade 2, node 20), m
        148   -6.796E+00                                 F               0         X-component position of node 50 (blade 2, node 21), m
        149   -5.888E+01                                 F               0         Y-component position of node 50 (blade 2, node 21), m
        150    7.197E+01                                 F               0         Z-component position of node 50 (blade 2, node 21), m
        151   -7.401E+00                                 F               0         X-component position of node 51 (blade 2, node 22), m
        152   -6.099E+01                                 F               0         Y-component position of node 51 (blade 2, node 22), m
        153    6.879E+01                                 F               0         Z-component position of node 51 (blade 2, node 22), m
        154   -8.006E+00                                 F               0         X-component position of node 52 (blade 2, node 23), m
        155   -6.310E+01                                 F               0         Y-component position of node 52 (blade 2, node 23), m
        156    6.560E+01                                 F               0         Z-component position of node 52 (blade 2, node 23), m
        157   -8.611E+00                                 F               0         X-component position of node 53 (blade 2, node 24), m
        158   -6.520E+01                                 F               0         Y-component position of node 53 (blade 2, node 24), m
        159    6.242E+01                                 F               0         Z-component position of node 53 (blade 2, node 24), m
        160   -9.217E+00                                 F               0         X-component position of node 54 (blade 2, node 25), m
        161   -6.731E+01                                 F               0         Y-component position of node 54 (blade 2, node 25), m
        162    5.923E+01                                 F               0         Z-component position of node 54 (blade 2, node 25), m
        163   -9.822E+00                                 F               0         X-component position of node 55 (blade 2, node 26), m
        164   -6.942E+01                                 F               0         Y-component position of node 55 (blade 2, node 26), m
        165    5.605E+01                                 F               0         Z-component position of node 55 (blade 2, node 26), m
        166   -1.043E+01                                 F               0         X-component position of node 56 (blade 2, node 27), m
        167   -7.153E+01                                 F               0         Y-component position of node 56 (blade 2, node 27), m
        168    5.286E+01                                 F               0         Z-component position of node 56 (blade 2, node 27), m
        169   -1.094E+01                                 F               0         X-component position of node 57 (blade 2, node 28), m
        170   -7.332E+01                                 F               0         Y-component position of node 57 (blade 2, node 28), m
        171    5.016E+01                                 F               0         Z-component position of node 57 (blade 2, node 28), m
        172    7.906E+00                                 F               0         X-component position of node 58 (blade 3, node 1), m
        173   -1.728E+00                                 F               0         Y-component position of node 58 (blade 3, node 1), m
        174    1.496E+02                                 F               0         Z-component position of node 58 (blade 3, node 1), m
        175    7.880E+00                                 F               0         X-component position of node 59 (blade 3, node 2), m
        176   -3.954E-01                                 F               0         Y-component position of node 59 (blade 3, node 2), m
        177    1.496E+02                                 F               0         Z-component position of node 59 (blade 3, node 2), m
        178    7.532E+00                                 F               0         X-component position of node 60 (blade 3, node 3), m
        179    1.773E+01                                 F               0         Y-component position of node 60 (blade 3, node 3), m
        180    1.486E+02                                 F               0         Z-component position of node 60 (blade 3, node 3), m
        181    7.458E+00                                 F               0         X-component position of node 61 (blade 3, node 4), m
        182    2.159E+01                                 F               0         Y-component position of node 61 (blade 3, node 4), m
        183    1.485E+02                                 F               0         Z-component position of node 61 (blade 3, node 4), m
        184    7.384E+00                                 F               0         X-component position of node 62 (blade 3, node 5), m
        185    2.545E+01                                 F               0         Y-component position of node 62 (blade 3, node 5), m
        186    1.483E+02                                 F               0         Z-component position of node 62 (blade 3, node 5), m
        187    7.309E+00                                 F               0         X-component position of node 63 (blade 3, node 6), m
        188    2.932E+01                                 F               0         Y-component position of node 63 (blade 3, node 6), m
        189    1.481E+02                                 F               0         Z-component position of node 63 (blade 3, node 6), m
        190    7.235E+00                                 F               0         X-component position of node 64 (blade 3, node 7), m
        191    3.318E+01                                 F               0         Y-component position of node 64 (blade 3, node 7), m
        192    1.479E+02                                 F               0         Z-component position of node 64 (blade 3, node 7), m
        193    7.161E+00                                 F               0         X-component position of node 65 (blade 3, node 8), m
        194    3.704E+01                                 F               0         Y-component position of node 65 (blade 3, node 8), m
        195    1.477E+02                                 F               0         Z-component position of node 65 (blade 3, node 8), m
        196    7.087E+00                                 F               0         X-component position of node 66 (blade 3, node 9), m
        197    4.090E+01                                 F               0         Y-component position of node 66 (blade 3, node 9), m
        198    1.475E+02                                 F               0         Z-component position of node 66 (blade 3, node 9), m
        199    7.013E+00                                 F               0         X-component position of node 67 (blade 3, node 10), m
        200    4.476E+01                                 F               0         Y-component position of node 67 (blade 3, node 10), m
        201    1.473E+02                                 F               0         Z-component position of node 67 (blade 3, node 10), m
        202    6.939E+00                                 F               0         X-component position of node 68 (blade 3, node 11), m
        203    4.863E+01                                 F               0         Y-component position of node 68 (blade 3, node 11), m
        204    1.471E+02                                 F               0         Z-component position of node 68 (blade 3, node 11), m
        205    6.864E+00                                 F               0         X-component position of node 69 (blade 3, node 12), m
        206    5.249E+01                                 F               0         Y-component position of node 69 (blade 3, node 12), m
        207    1.469E+02                                 F               0         Z-component position of node 69 (blade 3, node 12), m
        208    6.790E+00                                 F               0         X-component position of node 70 (blade 3, node 13), m
        209    5.635E+01                                 F               0         Y-component position of node 70 (blade 3, node 13), m
        210    1.467E+02                                 F               0         Z-component position of node 70 (blade 3, node 13), m
        211    6.716E+00                                 F               0         X-component position of node 71 (blade 3, node 14), m