
Linearized model: Predictions were generated on 08-Jan-2024 at 09:43:14 using OpenFAST, compiled as a 64-bit application using single precision at commit v3.5.1
 linked with  NWTC Subroutine Library; ElastoDyn; InflowWind; AeroDyn; ServoDyn; HydroDyn; MoorDyn (v2.0.0, 2023-09-18)

Description from the FAST input file: CCT-9 Campign 4 model. Input files to be run with OpenFAST 3.5.0. GitHub branch from Lu Wang (https://github.com/luwang00/openfast/tree/dev) compiled on March 7, 2023.

Simulation information:
   Simulation time:                  1003.2500 s
   Rotor Speed:                         0.7074 rad/s
   Azimuth:                             1.4863 rad
   Wind Speed:                          8.0000 m/s
   Number of continuous states:         0
   Number of discrete states:           0
   Number of constraint states:         0
   Number of inputs:                 1746
   Number of outputs:                   4
   Jacobians included in this file?    No

Order of inputs:
     Column   Operating Point                     Rotating Frame? Derivative Order Description
   ---------- ---------------                     --------------- ---------------- -----------
          1    7.251E+00                                 F               0         Tower X translation displacement, node 1, m
          2   -1.278E+00                                 F               0         Tower Y translation displacement, node 1, m
          3   -1.547E-01                                 F               0         Tower Z translation displacement, node 1, m
          4    8.293E+00                                 F               0         Tower X translation displacement, node 2, m
          5   -1.819E+00                                 F               0         Tower Y translation displacement, node 2, m
          6   -2.107E-01                                 F               0         Tower Z translation displacement, node 2, m
          7    9.350E+00                                 F               0         Tower X translation displacement, node 3, m
          8   -2.366E+00                                 F               0         Tower Y translation displacement, node 3, m
          9   -2.682E-01                                 F               0         Tower Z translation displacement, node 3, m
         10    1.042E+01                                 F               0         Tower X translation displacement, node 4, m
         11   -2.917E+00                                 F               0         Tower Y translation displacement, node 4, m
         12   -3.269E-01                                 F               0         Tower Z translation displacement, node 4, m
         13    1.150E+01                                 F               0         Tower X translation displacement, node 5, m
         14   -3.472E+00                                 F               0         Tower Y translation displacement, node 5, m
         15   -3.866E-01                                 F               0         Tower Z translation displacement, node 5, m
         16    1.259E+01                                 F               0         Tower X translation displacement, node 6, m
         17   -4.030E+00                                 F               0         Tower Y translation displacement, node 6, m
         18   -4.471E-01                                 F               0         Tower Z translation displacement, node 6, m
         19    1.368E+01                                 F               0         Tower X translation displacement, node 7, m
         20   -4.589E+00                                 F               0         Tower Y translation displacement, node 7, m
         21   -5.082E-01                                 F               0         Tower Z translation displacement, node 7, m
         22    1.477E+01                                 F               0         Tower X translation displacement, node 8, m
         23   -5.151E+00                                 F               0         Tower Y translation displacement, node 8, m
         24   -5.696E-01                                 F               0         Tower Z translation displacement, node 8, m
         25    1.587E+01                                 F               0         Tower X translation displacement, node 9, m
         26   -5.715E+00                                 F               0         Tower Y translation displacement, node 9, m
         27   -6.314E-01                                 F               0         Tower Z translation displacement, node 9, m
         28    1.697E+01                                 F               0         Tower X translation displacement, node 10, m
         29   -6.279E+00                                 F               0         Tower Y translation displacement, node 10, m
         30   -6.934E-01                                 F               0         Tower Z translation displacement, node 10, m
         31    1.807E+01                                 F               0         Tower X translation displacement, node 11, m
         32   -6.844E+00                                 F               0         Tower Y translation displacement, node 11, m
         33   -7.555E-01                                 F               0         Tower Z translation displacement, node 11, m
         34    9.965E-01,  4.116E-03, -8.373E-02         F               0         Tower X orientation angle, node 1, rad
         35   -4.400E-04,  9.990E-01,  4.388E-02         F               0         Tower Y orientation angle, node 1, rad
         36    8.383E-02, -4.368E-02,  9.955E-01         F               0         Tower Z orientation angle, node 1, rad
         37    9.964E-01,  4.169E-03, -8.494E-02         F               0         Tower X orientation angle, node 2, rad
         38   -4.063E-04,  9.990E-01,  4.427E-02         F               0         Tower Y orientation angle, node 2, rad
         39    8.504E-02, -4.408E-02,  9.954E-01         F               0         Tower Z orientation angle, node 2, rad
         40    9.963E-01,  4.216E-03, -8.598E-02         F               0         Tower X orientation angle, node 3, rad
         41   -3.757E-04,  9.990E-01,  4.463E-02         F               0         Tower Y orientation angle, node 3, rad
         42    8.608E-02, -4.443E-02,  9.953E-01         F               0         Tower Z orientation angle, node 3, rad
         43    9.962E-01,  4.254E-03, -8.683E-02         F               0         Tower X orientation angle, node 4, rad
         44   -3.486E-04,  9.990E-01,  4.494E-02         F               0         Tower Y orientation angle, node 4, rad
         45    8.694E-02, -4.474E-02,  9.952E-01         F               0         Tower Z orientation angle, node 4, rad
         46    9.962E-01,  4.285E-03, -8.752E-02         F               0         Tower X orientation angle, node 5, rad
         47   -3.253E-04,  9.990E-01,  4.521E-02         F               0         Tower Y orientation angle, node 5, rad
         48    8.762E-02, -4.501E-02,  9.951E-01         F               0         Tower Z orientation angle, node 5, rad
         49    9.961E-01,  4.309E-03, -8.804E-02         F               0         Tower X orientation angle, node 6, rad
         50   -3.056E-04,  9.990E-01,  4.543E-02         F               0         Tower Y orientation angle, node 6, rad
         51    8.814E-02, -4.523E-02,  9.951E-01         F               0         Tower Z orientation angle, node 6, rad
         52    9.961E-01,  4.326E-03, -8.841E-02         F               0         Tower X orientation angle, node 7, rad
         53   -2.898E-04,  9.990E-01,  4.561E-02         F               0         Tower Y orientation angle, node 7, rad
         54    8.852E-02, -4.541E-02,  9.950E-01         F               0         Tower Z orientation angle, node 7, rad
         55    9.961E-01,  4.337E-03, -8.867E-02         F               0         Tower X orientation angle, node 8, rad
         56   -2.775E-04,  9.990E-01,  4.575E-02         F               0         Tower Y orientation angle, node 8, rad
         57    8.877E-02, -4.554E-02,  9.950E-01         F               0         Tower Z orientation angle, node 8, rad
         58    9.960E-01,  4.345E-03, -8.883E-02         F               0         Tower X orientation angle, node 9, rad
         59   -2.685E-04,  9.989E-01,  4.585E-02         F               0         Tower Y orientation angle, node 9, rad
         60    8.894E-02, -4.565E-02,  9.950E-01         F               0         Tower Z orientation angle, node 9, rad
         61    9.960E-01,  4.349E-03, -8.892E-02         F               0         Tower X orientation angle, node 10, rad
         62   -2.626E-04,  9.989E-01,  4.592E-02         F               0         Tower Y orientation angle, node 10, rad
         63    8.903E-02, -4.571E-02,  9.950E-01         F               0         Tower Z orientation angle, node 10, rad
         64    9.960E-01,  4.351E-03, -8.896E-02         F               0         Tower X orientation angle, node 11, rad
         65   -2.594E-04,  9.989E-01,  4.595E-02         F               0         Tower Y orientation angle, node 11, rad
         66    8.907E-02, -4.575E-02,  9.950E-01         F               0         Tower Z orientation angle, node 11, rad
         67   -1.940E-04                                 F               0         Tower X translation velocity, node 1, m/s
         68    9.817E-04                                 F               0         Tower Y translation velocity, node 1, m/s
         69   -3.147E-03                                 F               0         Tower Z translation velocity, node 1, m/s
         70   -2.080E-04                                 F               0         Tower X translation velocity, node 2, m/s
         71    1.540E-03                                 F               0         Tower Y translation velocity, node 2, m/s
         72   -3.122E-03                                 F               0         Tower Z translation velocity, node 2, m/s
         73   -2.134E-04                                 F               0         Tower X translation velocity, node 3, m/s
         74    2.090E-03                                 F               0         Tower Y translation velocity, node 3, m/s
         75   -3.097E-03                                 F               0         Tower Z translation velocity, node 3, m/s
         76   -2.114E-04                                 F               0         Tower X translation velocity, node 4, m/s
         77    2.634E-03                                 F               0         Tower Y translation velocity, node 4, m/s
         78   -3.072E-03                                 F               0         Tower Z translation velocity, node 4, m/s
         79   -2.026E-04                                 F               0         Tower X translation velocity, node 5, m/s
         80    3.170E-03                                 F               0         Tower Y translation velocity, node 5, m/s
         81   -3.049E-03                                 F               0         Tower Z translation velocity, node 5, m/s
         82   -1.875E-04                                 F               0         Tower X translation velocity, node 6, m/s
         83    3.701E-03                                 F               0         Tower Y translation velocity, node 6, m/s
         84   -3.026E-03                                 F               0         Tower Z translation velocity, node 6, m/s
         85   -1.673E-04                                 F               0         Tower X translation velocity, node 7, m/s
         86    4.226E-03                                 F               0         Tower Y translation velocity, node 7, m/s
         87   -3.004E-03                                 F               0         Tower Z translation velocity, node 7, m/s
         88   -1.422E-04                                 F               0         Tower X translation velocity, node 8, m/s
         89    4.746E-03                                 F               0         Tower Y translation velocity, node 8, m/s
         90   -2.983E-03                                 F               0         Tower Z translation velocity, node 8, m/s
         91   -1.132E-04                                 F               0         Tower X translation velocity, node 9, m/s
         92    5.262E-03                                 F               0         Tower Y translation velocity, node 9, m/s
         93   -2.962E-03                                 F               0         Tower Z translation velocity, node 9, m/s
         94   -8.115E-05                                 F               0         Tower X translation velocity, node 10, m/s
         95    5.775E-03                                 F               0         Tower Y translation velocity, node 10, m/s
         96   -2.941E-03                                 F               0         Tower Z translation velocity, node 10, m/s
         97   -4.722E-05                                 F               0         Tower X translation velocity, node 11, m/s
         98    6.286E-03                                 F               0         Tower Y translation velocity, node 11, m/s
         99   -2.920E-03                                 F               0         Tower Z translation velocity, node 11, m/s
        100    1.881E+01                                 F               0         Hub X translation displacement, node 1, m
        101   -7.250E+00                                 F               0         Hub Y translation displacement, node 1, m
        102    1.659E-01                                 F               0         Hub Z translation displacement, node 1, m
        103    9.813E-01,  9.109E-03, -1.925E-01         F               0         Hub X orientation angle, node 1, rad
        104    1.920E-01,  3.944E-02,  9.806E-01         F               0         Hub Y orientation angle, node 1, rad
        105    1.652E-02, -9.992E-01,  3.695E-02         F               0         Hub Z orientation angle, node 1, rad
        106    6.941E-01                                 F               0         Hub X rotation velocity, node 1, rad/s
        107    6.447E-03                                 F               0         Hub Y rotation velocity, node 1, rad/s
        108   -1.362E-01                                 F               0         Hub Z rotation velocity, node 1, rad/s
        109    9.751E-01,  7.935E-03, -2.215E-01         F               0         Blade root 1 X orientation angle, node 1, rad
        110    2.210E-01,  3.969E-02,  9.745E-01         F               0         Blade root 1 Y orientation angle, node 1, rad
        111    1.652E-02, -9.992E-01,  3.695E-02         F               0         Blade root 1 Z orientation angle, node 1, rad
        112    9.833E-01,  3.536E-02, -1.788E-01         F               0         Blade root 2 X orientation angle, node 1, rad
        113   -5.253E-02, -8.844E-01, -4.638E-01         F               0         Blade root 2 Y orientation angle, node 1, rad
        114   -1.745E-01,  4.654E-01, -8.677E-01         F               0         Blade root 2 Z orientation angle, node 1, rad
        115    9.841E-01, -1.598E-02, -1.769E-01         F               0         Blade root 3 X orientation angle, node 1, rad
        116   -8.114E-02,  8.455E-01, -5.278E-01         F               0         Blade root 3 Y orientation angle, node 1, rad
        117    1.580E-01,  5.337E-01,  8.308E-01         F               0         Blade root 3 Z orientation angle, node 1, rad
        118    1.832E+01                                 F               0         Blade 1 X translation displacement, node 1, m
        119   -1.279E+01                                 F               0         Blade 1 Y translation displacement, node 1, m
        120   -5.139E+00                                 F               0         Blade 1 Z translation displacement, node 1, m
        121    1.821E+01                                 F               0         Blade 1 X translation displacement, node 2, m
        122   -1.412E+01                                 F               0         Blade 1 Y translation displacement, node 2, m
        123   -6.417E+00                                 F               0         Blade 1 Z translation displacement, node 2, m
        124    1.661E+01                                 F               0         Blade 1 X translation displacement, node 3, m
        125   -3.226E+01                                 F               0         Blade 1 Y translation displacement, node 3, m
        126   -2.380E+01                                 F               0         Blade 1 Z translation displacement, node 3, m
        127    1.627E+01                                 F               0         Blade 1 X translation displacement, node 4, m
        128   -3.612E+01                                 F               0         Blade 1 Y translation displacement, node 4, m
        129   -2.750E+01                                 F               0         Blade 1 Z translation displacement, node 4, m
        130    1.593E+01                                 F               0         Blade 1 X translation displacement, node 5, m
        131   -3.999E+01                                 F               0         Blade 1 Y translation displacement, node 5, m
        132   -3.121E+01                                 F               0         Blade 1 Z translation displacement, node 5, m
        133    1.559E+01                                 F               0         Blade 1 X translation displacement, node 6, m
        134   -4.385E+01                                 F               0         Blade 1 Y translation displacement, node 6, m
        135   -3.491E+01                                 F               0         Blade 1 Z translation displacement, node 6, m
        136    1.525E+01                                 F               0         Blade 1 X translation displacement, node 7, m
        137   -4.772E+01                                 F               0         Blade 1 Y translation displacement, node 7, m
        138   -3.861E+01                                 F               0         Blade 1 Z translation displacement, node 7, m
        139    1.491E+01                                 F               0         Blade 1 X translation displacement, node 8, m
        140   -5.158E+01                                 F               0         Blade 1 Y translation displacement, node 8, m
        141   -4.232E+01                                 F               0         Blade 1 Z translation displacement, node 8, m
        142    1.457E+01                                 F               0         Blade 1 X translation displacement, node 9, m
        143   -5.544E+01                                 F               0         Blade 1 Y translation displacement, node 9, m
        144   -4.602E+01                                 F               0         Blade 1 Z translation displacement, node 9, m
        145    1.423E+01                                 F               0         Blade 1 X translation displacement, node 10, m
        146   -5.931E+01                                 F               0         Blade 1 Y translation displacement, node 10, m
        147   -4.972E+01                                 F               0         Blade 1 Z translation displacement, node 10, m
        148    1.389E+01                                 F               0         Blade 1 X translation displacement, node 11, m
        149   -6.317E+01                                 F               0         Blade 1 Y translation displacement, node 11, m
        150   -5.343E+01                                 F               0         Blade 1 Z translation displacement, node 11, m
        151    1.355E+01                                 F               0         Blade 1 X translation displacement, node 12, m
        152   -6.704E+01                                 F               0         Blade 1 Y translation displacement, node 12, m
        153   -5.713E+01                                 F               0         Blade 1 Z translation displacement, node 12, m
        154    1.321E+01                                 F               0         Blade 1 X translation displacement, node 13, m
        155   -7.090E+01                                 F               0         Blade 1 Y translation displacement, node 13, m
        156   -6.084E+01                                 F               0         Blade 1 Z translation displacement, node 13, m
        157    1.287E+01                                 F               0         Blade 1 X translation displacement, node 14, m
        158   -7.477E+01                                 F               0         Blade 1 Y translation displacement, node 14, m
        159   -6.454E+01                                 F               0         Blade 1 Z translation displacement, node 14, m
        160    1.252E+01                                 F               0         Blade 1 X translation displacement, node 15, m
        161   -7.863E+01                                 F               0         Blade 1 Y translation displacement, node 15, m
        162   -6.824E+01                                 F               0         Blade 1 Z translation displacement, node 15, m
        163    1.218E+01                                 F               0         Blade 1 X translation displacement, node 16, m
        164   -8.250E+01                                 F               0         Blade 1 Y translation displacement, node 16, m
        165   -7.195E+01                                 F               0         Blade 1 Z translation displacement, node 16, m
        166    1.184E+01                                 F               0         Blade 1 X translation displacement, node 17, m
        167   -8.636E+01                                 F               0         Blade 1 Y translation displacement, node 17, m
        168   -7.565E+01                                 F               0         Blade 1 Z translation displacement, node 17, m
        169    1.150E+01                                 F               0         Blade 1 X translation displacement, node 18, m
        170   -9.022E+01                                 F               0         Blade 1 Y translation displacement, node 18, m
        171   -7.935E+01                                 F               0         Blade 1 Z translation displacement, node 18, m
        172    1.116E+01                                 F               0         Blade 1 X translation displacement, node 19, m
        173   -9.409E+01                                 F               0         Blade 1 Y translation displacement, node 19, m
        174   -8.306E+01                                 F               0         Blade 1 Z translation displacement, node 19, m
        175    1.082E+01                                 F               0         Blade 1 X translation displacement, node 20, m
        176   -9.795E+01                                 F               0         Blade 1 Y translation displacement, node 20, m
        177   -8.676E+01                                 F               0         Blade 1 Z translation displacement, node 20, m
        178    1.048E+01                                 F               0         Blade 1 X translation displacement, node 21, m
        179   -1.018E+02                                 F               0         Blade 1 Y translation displacement, node 21, m
        180   -9.046E+01                                 F               0         Blade 1 Z translation displacement, node 21, m
        181    1.014E+01                                 F               0         Blade 1 X translation displacement, node 22, m
        182   -1.057E+02                                 F               0         Blade 1 Y translation displacement, node 22, m
        183   -9.417E+01                                 F               0         Blade 1 Z translation displacement, node 22, m
        184    9.802E+00                                 F               0         Blade 1 X translation displacement, node 23, m
        185   -1.095E+02                                 F               0         Blade 1 Y translation displacement, node 23, m
        186   -9.787E+01                                 F               0         Blade 1 Z translation displacement, node 23, m
        187    9.462E+00                                 F               0         Blade 1 X translation displacement, node 24, m
        188   -1.134E+02                                 F               0         Blade 1 Y translation displacement, node 24, m
        189   -1.016E+02                                 F               0         Blade 1 Z translation displacement, node 24, m
        190    9.121E+00                                 F               0         Blade 1 X translation displacement, node 25, m
        191   -1.173E+02                                 F               0         Blade 1 Y translation displacement, node 25, m
        192   -1.053E+02                                 F               0         Blade 1 Z translation displacement, node 25, m
        193    8.781E+00                                 F               0         Blade 1 X translation displacement, node 26, m
        194   -1.211E+02                                 F               0         Blade 1 Y translation displacement, node 26, m
        195   -1.090E+02                                 F               0         Blade 1 Z translation displacement, node 26, m
        196    8.440E+00                                 F               0         Blade 1 X translation displacement, node 27, m
        197   -1.250E+02                                 F               0         Blade 1 Y translation displacement, node 27, m
        198   -1.127E+02                                 F               0         Blade 1 Z translation displacement, node 27, m
        199    8.152E+00                                 F               0         Blade 1 X translation displacement, node 28, m
        200   -1.283E+02                                 F               0         Blade 1 Y translation displacement, node 28, m
        201   -1.158E+02                                 F               0         Blade 1 Z translation displacement, node 28, m
        202    7.671E-01, -1.104E-02, -6.415E-01         F               0         Blade 1 X orientation angle, node 1, rad
        203    6.414E-01,  3.894E-02,  7.662E-01         F               0         Blade 1 Y orientation angle, node 1, rad
        204    1.652E-02, -9.992E-01,  3.695E-02         F               0         Blade 1 Z orientation angle, node 1, rad
        205    7.671E-01, -1.104E-02, -6.415E-01         F               0         Blade 1 X orientation angle, node 2, rad
        206    6.414E-01,  3.894E-02,  7.662E-01         F               0         Blade 1 Y orientation angle, node 2, rad
        207    1.652E-02, -9.992E-01,  3.695E-02         F               0         Blade 1 Z orientation angle, node 2, rad
        208    8.972E-01, -1.494E-03, -4.416E-01         F               0         Blade 1 X orientation angle, node 3, rad
        209    4.413E-01,  4.045E-02,  8.965E-01         F               0         Blade 1 Y orientation angle, node 3, rad
        210    1.652E-02, -9.992E-01,  3.695E-02         F               0         Blade 1 Z orientation angle, node 3, rad
        211    9.150E-01,  2.156E-04, -4.033E-01         F               0         Blade 1 X orientation angle, node 4, rad
        212    4.030E-01,  4.048E-02,  9.143E-01         F               0         Blade 1 Y orientation angle, node 4, rad
        213    1.652E-02, -9.992E-01,  3.695E-02         F               0         Blade 1 Z orientation angle, node 4, rad
        214    9.279E-01,  1.558E-03, -3.728E-01         F               0         Blade 1 X orientation angle, node 5, rad
        215    3.725E-01,  4.045E-02,  9.272E-01         F               0         Blade 1 Y orientation angle, node 5, rad
        216    1.652E-02, -9.992E-01,  3.695E-02         F               0         Blade 1 Z orientation angle, node 5, rad
        217    9.375E-01,  2.630E-03, -3.481E-01         F               0         Blade 1 X orientation angle, node 6, rad
        218    3.477E-01,  4.039E-02,  9.367E-01         F               0         Blade 1 Y orientation angle, node 6, rad
        219    1.652E-02, -9.992E-01,  3.695E-02         F               0         Blade 1 Z orientation angle, node 6, rad
        220    9.448E-01,  3.510E-03, -3.276E-01         F               0         Blade 1 X orientation angle, node 7, rad
        221    3.272E-01,  4.033E-02,  9.441E-01         F               0         Blade 1 Y orientation angle, node 7, rad
        222    1.652E-02, -9.992E-01,  3.695E-02         F               0         Blade 1 Z orientation angle, node 7, rad
        223    9.506E-01,  4.242E-03, -3.104E-01         F               0         Blade 1 X orientation angle, node 8, rad
        224    3.100E-01,  4.026E-02,  9.499E-01         F               0         Blade 1 Y orientation angle, node 8, rad
        225    1.652E-02, -9.992E-01,  3.695E-02         F               0         Blade 1 Z orientation angle, node 8, rad
        226    9.553E-01,  4.860E-03, -2.958E-01         F               0         Blade 1 X orientation angle, node 9, rad
        227    2.953E-01,  4.019E-02,  9.545E-01         F               0         Blade 1 Y orientation angle, node 9, rad