
Linearized model: Predictions were generated on 20-Feb-2024 at 08:38:00 using OpenFAST, compiled as a 64-bit application using single precision at commit v3.5.1
 linked with  NWTC Subroutine Library; ElastoDyn; InflowWind; AeroDyn; ServoDyn; HydroDyn; MAP++ (<1.20.10>, <Oct-20-2023>)

Description from the FAST input file: CCT-9 Campign 4 model. Input files to be run with OpenFAST 3.5.0. GitHub branch from Lu Wang (https://github.com/luwang00/openfast/tree/dev) compiled on March 7, 2023.

Simulation information:
   Simulation time:                   896.5750 s
   Rotor Speed:                         0.7916 rad/s
   Azimuth:                             5.6025 rad
   Wind Speed:                         24.0000 m/s
   Number of continuous states:        18
   Number of discrete states:           0
   Number of constraint states:         0
   Number of inputs:                    6
   Number of outputs:                  25
   Jacobians included in this file?    No

Order of continuous states:
   Row/Column Operating Point                                                   Rotating Frame? Derivative Order Description
   ---------- ---------------                                                   --------------- ---------------- -----------
          1     6.83857107162E+000                                                     F               2         Platform horizontal surge translation DOF (internal DOF index = DOF_Sg), m
          2    -8.12461376190E-001                                                     F               2         Platform horizontal sway translation DOF (internal DOF index = DOF_Sw), m
          3    -1.10355019569E-001                                                     F               2         Platform vertical heave translation DOF (internal DOF index = DOF_Hv), m
          4     5.42904734612E-002                                                     F               2         Platform roll tilt rotation DOF (internal DOF index = DOF_R), rad
          5     9.53158959746E-002                                                     F               2         Platform pitch tilt rotation DOF (internal DOF index = DOF_P), rad
          6    -9.21617634594E-003                                                     F               2         Platform yaw rotation DOF (internal DOF index = DOF_Y), rad
          7     5.26761472225E-001                                                     F               2         1st tower fore-aft bending mode DOF (internal DOF index = DOF_TFA1), m
          8     2.61895775795E-001                                                     F               2         1st tower side-to-side bending mode DOF (internal DOF index = DOF_TSS1), m
          9     4.03168535233E+000                                                     F               2         Variable speed generator DOF (internal DOF index = DOF_GeAz), rad
         10     9.56612173468E-004                                                     F               2         First time derivative of Platform horizontal surge translation DOF (internal DOF index = DOF_Sg), m/s
         11     3.84104484692E-003                                                     F               2         First time derivative of Platform horizontal sway translation DOF (internal DOF index = DOF_Sw), m/s
         12     2.69014667720E-003                                                     F               2         First time derivative of Platform vertical heave translation DOF (internal DOF index = DOF_Hv), m/s
         13    -9.26687789615E-005                                                     F               2         First time derivative of Platform roll tilt rotation DOF (internal DOF index = DOF_R), rad/s
         14    -2.51317101174E-006                                                     F               2         First time derivative of Platform pitch tilt rotation DOF (internal DOF index = DOF_P), rad/s
         15     5.44493377674E-006                                                     F               2         First time derivative of Platform yaw rotation DOF (internal DOF index = DOF_Y), rad/s
         16    -8.51598393638E-004                                                     F               2         First time derivative of 1st tower fore-aft bending mode DOF (internal DOF index = DOF_TFA1), m/s
         17     2.16434840113E-002                                                     F               2         First time derivative of 1st tower side-to-side bending mode DOF (internal DOF index = DOF_TSS1), m/s
         18     7.91592001915E-001                                                     F               2         First time derivative of Variable speed generator DOF (internal DOF index = DOF_GeAz), rad/s

Order of continuous state derivatives:
   Row/Column Operating Point                                                   Rotating Frame? Derivative Order Description
   ---------- ---------------                                                   --------------- ---------------- -----------
          1     9.56612173468E-004                                                     F               2         First time derivative of Platform horizontal surge translation DOF (internal DOF index = DOF_Sg), m/s
          2     3.84104484692E-003                                                     F               2         First time derivative of Platform horizontal sway translation DOF (internal DOF index = DOF_Sw), m/s
          3     2.69014667720E-003                                                     F               2         First time derivative of Platform vertical heave translation DOF (internal DOF index = DOF_Hv), m/s
          4    -9.26687789615E-005                                                     F               2         First time derivative of Platform roll tilt rotation DOF (internal DOF index = DOF_R), rad/s
          5    -2.51317101174E-006                                                     F               2         First time derivative of Platform pitch tilt rotation DOF (internal DOF index = DOF_P), rad/s
          6     5.44493377674E-006                                                     F               2         First time derivative of Platform yaw rotation DOF (internal DOF index = DOF_Y), rad/s
          7    -8.51598393638E-004                                                     F               2         First time derivative of 1st tower fore-aft bending mode DOF (internal DOF index = DOF_TFA1), m/s
          8     2.16434840113E-002                                                     F               2         First time derivative of 1st tower side-to-side bending mode DOF (internal DOF index = DOF_TSS1), m/s
          9     7.91592001915E-001                                                     F               2         First time derivative of Variable speed generator DOF (internal DOF index = DOF_GeAz), rad/s
         10    -8.81718564779E-003                                                     F               2         First time derivative of First time derivative of Platform horizontal surge translation DOF (internal DOF index = DOF_Sg), m/s/s
         11     2.52488395199E-003                                                     F               2         First time derivative of First time derivative of Platform horizontal sway translation DOF (internal DOF index = DOF_Sw), m/s/s
         12    -3.33338160999E-004                                                     F               2         First time derivative of First time derivative of Platform vertical heave translation DOF (internal DOF index = DOF_Hv), m/s/s
         13    -1.53963759658E-004                                                     F               2         First time derivative of First time derivative of Platform roll tilt rotation DOF (internal DOF index = DOF_R), rad/s/s
         14    -5.37045358215E-004                                                     F               2         First time derivative of First time derivative of Platform pitch tilt rotation DOF (internal DOF index = DOF_P), rad/s/s
         15    -4.19388052251E-005                                                     F               2         First time derivative of First time derivative of Platform yaw rotation DOF (internal DOF index = DOF_Y), rad/s/s
         16     1.21541149914E-001                                                     F               2         First time derivative of First time derivative of 1st tower fore-aft bending mode DOF (internal DOF index = DOF_TFA1), m/s/s
         17     2.61117219925E-002                                                     F               2         First time derivative of First time derivative of 1st tower side-to-side bending mode DOF (internal DOF index = DOF_TSS1), m/s/s
         18    -9.40184632782E-004                                                     F               2         First time derivative of First time derivative of Variable speed generator DOF (internal DOF index = DOF_GeAz), rad/s/s

Order of inputs:
     Column   Operating Point                                                   Rotating Frame? Derivative Order Description
   ---------- ---------------                                                   --------------- ---------------- -----------
          1     2.94776111841E-001                                                     T               0         Blade 1 pitch command, rad
          2     2.94776111841E-001                                                     T               0         Blade 2 pitch command, rad
          3     2.94776111841E-001                                                     T               0         Blade 3 pitch command, rad
          4     0.00000000000E+000                                                     F               0         Yaw moment, Nm
          5     1.86691280000E+007                                                     F               0         Generator torque, Nm
          6     2.94776111841E-001                                                     F               0         Extended input: collective blade-pitch command, rad

Order of outputs:
        Row   Operating Point                                                   Rotating Frame? Derivative Order Description
   ---------- ---------------                                                   --------------- ---------------- -----------
          1     7.55914688110E+000                                                     F               0         GenSpeed, (rpm)
          2     7.55914688110E+000                                                     F               0         RotSpeed, (rpm)
          3     1.86691289062E+004                                                     F               0         RotTorq, (kN-m)
          4     2.48327612305E+003                                                     F               0         RotThrust, (kN)
          5     1.21727351562E+005                                                     F               0         TwrBsMxt, (kN-m)
          6     2.88455031250E+005                                                     F               0         TwrBsMyt, (kN-m)
          7    -7.79052783203E+003                                                     F               0         TwrBsMzt, (kN-m)
          8     2.95250122070E+003                                                     F               0         TwrBsFxt, (kN)
          9    -9.46505310059E+002                                                     F               0         TwrBsFyt, (kN)
         10    -1.80198535156E+004                                                     F               0         TwrBsFzt, (kN)
         11     6.83857107162E+000                                                     F               0         PtfmSurge, (m)
         12    -8.12461376190E-001                                                     F               0         PtfmSway, (m)
         13    -1.10355019569E-001                                                     F               0         PtfmHeave, (m)
         14     3.11061477661E+000                                                     F               0         PtfmRoll, (deg)
         15     5.46119832993E+000                                                     F               0         PtfmPitch, (deg)
         16    -5.28047978878E-001                                                     F               0         PtfmYaw, (deg)
         17     5.26761472225E-001                                                     F               0         TTDspFA, (m)
         18    -2.61895775795E-001                                                     F               0         TTDspSS, (m)
         19    -8.76211374998E-003                                                     F               0         PtfmTAxt, (m/s^2)
         20     2.39986600354E-003                                                     F               0         PtfmTAyt, (m/s^2)
         21    -1.30188977346E-003                                                     F               0         PtfmTAzt, (m/s^2)
         22    -8.35014879704E-003                                                     F               0         PtfmRAxt, (deg/s^2)
         23    -3.09562534094E-002                                                     F               0         PtfmRAyt, (deg/s^2)
         24    -1.54827651568E-003                                                     F               0         PtfmRAzt, (deg/s^2)
         25     3.61212827265E-002                                                     F               0         YawBrTAxp, (m/s^2)


Linearized state matrices:

A: 18 x 18
     0.00000000000E+000   0.00000000000E+000   0.00000000000E+000   0.00000000000E+000   0.00000000000E+000   0.00000000000E+000   0.00000000000E+000   0.00000000000E+000   0.00000000000E+000   1.00000000000E+000   0.00000000000E+000   0.00000000000E+000   0.00000000000E+000   0.00000000000E+000   0.00000000000E+000   0.00000000000E+000   0.00000000000E+000   0.00000000000E+000
     0.00000000000E+000   0.00000000000E+000   0.00000000000E+000   0.00000000000E+000   0.00000000000E+000   0.00000000000E+000   0.00000000000E+000   0.00000000000E+000   0.00000000000E+000   0.00000000000E+000   1.00000000000E+000   0.00000000000E+000   0.00000000000E+000   0.00000000000E+000   0.00000000000E+000   0.00000000000E+000   0.00000000000E+000   0.00000000000E+000
     0.00000000000E+000   0.00000000000E+000   0.00000000000E+000   0.00000000000E+000   0.00000000000E+000   0.00000000000E+000   0.00000000000E+000   0.00000000000E+000   0.00000000000E+000   0.00000000000E+000   0.00000000000E+000   1.00000000000E+000   0.00000000000E+000   0.00000000000E+000   0.00000000000E+000   0.00000000000E+000   0.00000000000E+000   0.00000000000E+000
     0.00000000000E+000   0.00000000000E+000   0.00000000000E+000   0.00000000000E+000   0.00000000000E+000   0.00000000000E+000   0.00000000000E+000   0.00000000000E+000   0.00000000000E+000   0.00000000000E+000   0.00000000000E+000   0.00000000000E+000   1.00000000000E+000   0.00000000000E+000   0.00000000000E+000   0.00000000000E+000   0.00000000000E+000   0.00000000000E+000
     0.00000000000E+000   0.00000000000E+000   0.00000000000E+000   0.00000000000E+000   0.00000000000E+000   0.00000000000E+000   0.00000000000E+000   0.00000000000E+000   0.00000000000E+000   0.00000000000E+000   0.00000000000E+000   0.00000000000E+000   0.00000000000E+000   1.00000000000E+000   0.00000000000E+000   0.00000000000E+000   0.00000000000E+000   0.00000000000E+000
     0.00000000000E+000   0.00000000000E+000   0.00000000000E+000   0.00000000000E+000   0.00000000000E+000   0.00000000000E+000   0.00000000000E+000   0.00000000000E+000   0.00000000000E+000   0.00000000000E+000   0.00000000000E+000   0.00000000000E+000   0.00000000000E+000   0.00000000000E+000   1.00000000000E+000   0.00000000000E+000   0.00000000000E+000   0.00000000000E+000
     0.00000000000E+000   0.00000000000E+000   0.00000000000E+000   0.00000000000E+000   0.00000000000E+000   0.00000000000E+000   0.00000000000E+000   0.00000000000E+000   0.00000000000E+000   0.00000000000E+000   0.00000000000E+000   0.00000000000E+000   0.00000000000E+000   0.00000000000E+000   0.00000000000E+000   1.00000000000E+000   0.00000000000E+000   0.00000000000E+000
     0.00000000000E+000   0.00000000000E+000   0.00000000000E+000   0.00000000000E+000   0.00000000000E+000   0.00000000000E+000   0.00000000000E+000   0.00000000000E+000   0.00000000000E+000   0.00000000000E+000   0.00000000000E+000   0.00000000000E+000   0.00000000000E+000   0.00000000000E+000   0.00000000000E+000   0.00000000000E+000   1.00000000000E+000   0.00000000000E+000
     0.00000000000E+000   0.00000000000E+000   0.00000000000E+000   0.00000000000E+000   0.00000000000E+000   0.00000000000E+000   0.00000000000E+000   0.00000000000E+000   0.00000000000E+000   0.00000000000E+000   0.00000000000E+000   0.00000000000E+000   0.00000000000E+000   0.00000000000E+000   0.00000000000E+000   0.00000000000E+000   0.00000000000E+000   1.00000000000E+000
     0.00000000000E+000   0.00000000000E+000   0.00000000000E+000   2.59763146374E-002  -3.03429510610E+000   2.07753715762E-001   7.23096157268E-001  -8.25106222442E-003  -1.19108396079E-002   0.00000000000E+000   0.00000000000E+000   0.00000000000E+000   1.49491518446E-001  -7.30393734222E-002   7.13041244300E-001   2.45291944691E-003   9.72136822228E-004   6.33358267030E-005
     0.00000000000E+000   0.00000000000E+000   0.00000000000E+000   3.47172779405E+000   2.10351199628E-003   4.71850329625E-001  -7.19497782572E-003  -8.28805607803E-001  -4.36402178044E-005   0.00000000000E+000   0.00000000000E+000   0.00000000000E+000  -1.02418961823E-003   5.57728362376E-002  -3.70071768798E-003   6.55759822584E-004  -3.28862693965E-003  -1.72669663647E-004
     0.00000000000E+000   0.00000000000E+000   0.00000000000E+000   6.74768589452E-002   1.30568929605E-001   9.90868164146E-004  -2.93890638233E-002  -1.60712630939E-002   8.94611469722E-004   0.00000000000E+000   0.00000000000E+000   0.00000000000E+000  -3.45210508644E-003   5.54359260347E-003  -3.20949163928E-002  -7.11067222413E-005  -9.22294911033E-005  -2.17190522648E-004
     0.00000000000E+000   0.00000000000E+000   0.00000000000E+000  -2.11177267997E-001  -7.43872275144E-004  -2.91939512082E-002   5.08906661129E-004   4.96515631619E-002  -6.61852576566E-006   0.00000000000E+000   0.00000000000E+000   0.00000000000E+000   9.41715125351E-005   8.01375965962E-004   4.06562395753E-004   1.21822393194E-005   1.95614931375E-004   7.42964787309E-006
     0.00000000000E+000   0.00000000000E+000   0.00000000000E+000   1.20162975021E-003  -1.83239812186E-001   1.45409798173E-002   4.27735751858E-002  -4.37244550108E-004  -5.32682677999E-004   0.00000000000E+000   0.00000000000E+000   0.00000000000E+000   6.68119887897E-003  -4.59174255308E-003   3.19547080213E-002   1.33489564919E-004   4.33060877801E-005   4.02654970420E-006
     0.00000000000E+000   0.00000000000E+000   0.00000000000E+000   2.73622058445E-002  -9.01013005218E-003   1.80551625245E-003   2.12390223295E-003  -2.63811462426E-003  -1.29995197933E-004   0.00000000000E+000   0.00000000000E+000   0.00000000000E+000   8.78444983271E-004   5.16095397211E-002   4.21760661922E-003   6.47175109131E-004  -9.60413589327E-006  -1.34489960229E-005
     0.00000000000E+000   0.00000000000E+000   0.00000000000E+000  -1.48523409880E-002   3.76021009405E+001  -2.50403935679E+000  -8.97161747379E+000  -6.79313228000E-004   1.52688445770E-001   0.00000000000E+000   0.00000000000E+000   0.00000000000E+000  -1.89871506246E+000   5.25776697681E-001  -9.09732334515E+000  -3.53115119132E-002  -1.27005681008E-002  -1.31650623844E-003
     0.00000000000E+000   0.00000000000E+000   0.00000000000E+000   4.30243377554E+001  -3.32069624958E-001   5.97035745705E+000  -4.17301890936E-003  -1.02674679550E+001  -3.28810222908E-003   0.00000000000E+000   0.00000000000E+000   0.00000000000E+000  -4.54178928957E-003   9.12106349091E-001   4.86831121361E-002   1.12420241019E-002  -4.08001833486E-002  -1.48305278038E-002
     0.00000000000E+000   0.00000000000E+000   0.00000000000E+000  -3.14824144240E-001   1.54089528819E-002  -4.48263845486E-002   2.09718032827E-004   7.66111246035E-002  -1.23318641440E-005   0.00000000000E+000   0.00000000000E+000   0.00000000000E+000   1.55018415429E-004  -1.42150390215E-003  -7.48410549759E-005  -1.71668687060E-005   3.06440533529E-004   1.71415703097E-004
B: 18 x 6
     0.00000000000E+000   0.00000000000E+000   0.00000000000E+000   0.00000000000E+000   0.00000000000E+000   0.00000000000E+000
     0.00000000000E+000   0.00000000000E+000   0.00000000000E+000   0.00000000000E+000   0.00000000000E+000   0.00000000000E+000
     0.00000000000E+000   0.00000000000E+000   0.00000000000E+000   0.00000000000E+000   0.00000000000E+000   0.00000000000E+000
     0.00000000000E+000   0.00000000000E+000   0.00000000000E+000   0.00000000000E+000   0.00000000000E+000   0.00000000000E+000
     0.00000000000E+000   0.00000000000E+000   0.00000000000E+000   0.00000000000E+000   0.00000000000E+000   0.00000000000E+000
     0.00000000000E+000   0.00000000000E+000   0.00000000000E+000   0.00000000000E+000   0.00000000000E+000   0.00000000000E+000
     0.00000000000E+000   0.00000000000E+000   0.00000000000E+000   0.00000000000E+000   0.00000000000E+000   0.00000000000E+000
     0.00000000000E+000   0.00000000000E+000   0.00000000000E+000   0.00000000000E+000   0.00000000000E+000   0.00000000000E+000
     0.00000000000E+000   0.00000000000E+000   0.00000000000E+000   0.00000000000E+000   0.00000000000E+000   0.00000000000E+000
     0.00000000000E+000   0.00000000000E+000   0.00000000000E+000   0.00000000000E+000   2.35508025372E-011   0.00000000000E+000
     0.00000000000E+000   0.00000000000E+000   0.00000000000E+000   0.00000000000E+000   1.56578278435E-009   0.00000000000E+000
     0.00000000000E+000   0.00000000000E+000   0.00000000000E+000   0.00000000000E+000   4.32820641441E-011   0.00000000000E+000
     0.00000000000E+000   0.00000000000E+000   0.00000000000E+000   0.00000000000E+000  -7.41977842549E-011   0.00000000000E+000
     0.00000000000E+000   0.00000000000E+000   0.00000000000E+000   0.00000000000E+000   1.30492150916E-012   0.00000000000E+000
     0.00000000000E+000   0.00000000000E+000   0.00000000000E+000   0.00000000000E+000  -9.32371432686E-012   0.00000000000E+000
     0.00000000000E+000   0.00000000000E+000   0.00000000000E+000   0.00000000000E+000   1.29496202691E-011   0.00000000000E+000
     0.00000000000E+000   0.00000000000E+000   0.00000000000E+000   0.00000000000E+000   1.97242087215E-008   0.00000000000E+000
     0.00000000000E+000   0.00000000000E+000   0.00000000000E+000   0.00000000000E+000  -1.66419101252E-009   0.00000000000E+000
C: 25 x 18
     0.00000000000E+000   0.00000000000E+000   0.00000000000E+000   0.00000000000E+000   0.00000000000E+000   0.00000000000E+000   0.00000000000E+000   0.00000000000E+000   0.00000000000E+000   0.00000000000E+000   0.00000000000E+000   0.00000000000E+000   0.00000000000E+000   0.00000000000E+000   0.00000000000E+000   0.00000000000E+000   0.00000000000E+000   9.54930113897E+000
     0.00000000000E+000   0.00000000000E+000   0.00000000000E+000   0.00000000000E+000   0.00000000000E+000   0.00000000000E+000   0.00000000000E+000   0.00000000000E+000   0.00000000000E+000   0.00000000000E+000   0.00000000000E+000   0.00000000000E+000   0.00000000000E+000   0.00000000000E+000   0.00000000000E+000   0.00000000000E+000   0.00000000000E+000   9.54930113897E+000
     0.00000000000E+000   0.00000000000E+000   0.00000000000E+000   2.79764548404E-002  -2.79764548404E-002   2.79764548404E-002   0.00000000000E+000   2.26438317680E-002   0.00000000000E+000   0.00000000000E+000   0.00000000000E+000   0.00000000000E+000  -2.79764548404E-002  -5.59529096807E-002   0.00000000000E+000   4.52876635360E-002   2.26438317680E-002   0.00000000000E+000
     0.00000000000E+000   0.00000000000E+000   0.00000000000E+000  -6.03102425221E+001  -6.42269461998E+002   7.91418936866E+001   1.87430920885E+003   2.50780436830E+000  -4.99589542312E+001   0.00000000000E+000   0.00000000000E+000   0.00000000000E+000   6.16985740936E+002  -1.81574186028E+002   2.95524384827E+003   7.03090976396E+000   4.13532977663E+000   5.56032039952E-001
     0.00000000000E+000   0.00000000000E+000   0.00000000000E+000   1.68104250410E+005  -1.62968444736E+003   1.59469149765E+004   4.72803207315E+001   4.61254400237E+005   5.88624609841E+001   0.00000000000E+000   0.00000000000E+000   0.00000000000E+000  -2.51564281925E+002  -2.62956294336E+004  -1.44850892582E+003  -3.24803122880E+002   1.80099980350E+003   5.40505107516E+001
     0.00000000000E+000   0.00000000000E+000   0.00000000000E+000  -9.50304218018E+002   2.04882097943E+005  -6.37326022428E+003   4.50039453814E+005   5.39828949349E+001  -3.90730358883E+003   0.00000000000E+000   0.00000000000E+000   0.00000000000E+000   4.86512787790E+004  -1.32205534994E+004   2.32683979705E+005   1.75426293473E+003   3.26433478767E+002   2.55145268144E+001
     0.00000000000E+000   0.00000000000E+000   0.00000000000E+000  -2.60208097236E+004   6.91224760912E+003   6.09491548095E+003   7.95477810009E+001   1.85594675957E+004  -1.03690533398E+003   0.00000000000E+000   0.00000000000E+000   0.00000000000E+000   5.74269191451E+003   5.01145368919E+005   2.76082916888E+004   6.19614490583E+003   6.14949861239E+001  -1.25537346982E+002
     0.00000000000E+000   0.00000000000E+000   0.00000000000E+000  -2.08389617992E+001   7.69741730538E+003  -2.93032382112E+002   2.63890932376E+003   1.40957852756E+000  -8.82866973625E+001   0.00000000000E+000   0.00000000000E+000   0.00000000000E+000   1.09985585442E+003  -2.93822716961E+002   5.26039182129E+003   1.07473286529E+001   7.36490628253E+000   5.91002608503E-001
     0.00000000000E+000   0.00000000000E+000   0.00000000000E+000  -7.04809515397E+003   6.22231326218E+001  -6.99983139805E+002  -1.39401089322E+000  -2.85531359349E+003  -1.35073821026E+000   0.00000000000E+000   0.00000000000E+000   0.00000000000E+000   5.42393518218E+000   5.94511905057E+002   3.25077662603E+001   7.34367769025E+000  -1.16120399785E+001  -1.40144553466E+000
     0.00000000000E+000   0.00000000000E+000   0.00000000000E+000   1.25801724481E+003   1.93834867362E+003   1.36049499889E+002   2.47791451037E+002  -7.17130152092E+001   1.65061083558E+000   0.00000000000E+000   0.00000000000E+000   0.00000000000E+000   7.76066857272E+001  -1.39042980557E+001   3.06034439499E+002   1.04161626133E+000   4.52876635360E-001  -4.14051531638E+000
     1.00000006286E+000   0.00000000000E+000   0.00000000000E+000   0.00000000000E+000   0.00000000000E+000   0.00000000000E+000   0.00000000000E+000   0.00000000000E+000   0.00000000000E+000   0.00000000000E+000   0.00000000000E+000   0.00000000000E+000   0.00000000000E+000   0.00000000000E+000   0.00000000000E+000   0.00000000000E+000   0.00000000000E+000   0.00000000000E+000
     0.00000000000E+000   1.00000006286E+000   0.00000000000E+000   0.00000000000E+000   0.00000000000E+000   0.00000000000E+000   0.00000000000E+000   0.00000000000E+000   0.00000000000E+000   0.00000000000E+000   0.00000000000E+000   0.00000000000E+000   0.00000000000E+000   0.00000000000E+000   0.00000000000E+000   0.00000000000E+000   0.00000000000E+000   0.00000000000E+000
     0.00000000000E+000   0.00000000000E+000   9.99999942514E-001   0.00000000000E+000   0.00000000000E+000   0.00000000000E+000   0.00000000000E+000   0.00000000000E+000   0.00000000000E+000   0.00000000000E+000   0.00000000000E+000   0.00000000000E+000   0.00000000000E+000   0.00000000000E+000   0.00000000000E+000   0.00000000000E+000   0.00000000000E+000   0.00000000000E+000
     0.00000000000E+000   0.00000000000E+000   0.00000000000E+000   5.72957795131E+001   0.00000000000E+000   0.00000000000E+000   0.00000000000E+000   0.00000000000E+000   0.00000000000E+000   0.00000000000E+000   0.00000000000E+000   0.00000000000E+000   0.00000000000E+000   0.00000000000E+000   0.00000000000E+000   0.00000000000E+000   0.00000000000E+000   0.00000000000E+000
     0.00000000000E+000   0.00000000000E+000   0.00000000000E+000   0.00000000000E+000   5.72957795131E+001   0.00000000000E+000   0.00000000000E+000   0.00000000000E+000   0.00000000000E+000   0.00000000000E+000   0.00000000000E+000   0.00000000000E+000   0.00000000000E+000   0.00000000000E+000   0.00000000000E+000   0.00000000000E+000   0.00000000000E+000   0.00000000000E+000
     0.00000000000E+000   0.00000000000E+000   0.00000000000E+000   0.00000000000E+000   0.00000000000E+000   5.72957760980E+001   0.00000000000E+000   0.00000000000E+000   0.00000000000E+000   0.00000000000E+000   0.00000000000E+000   0.00000000000E+000   0.00000000000E+000   0.00000000000E+000   0.00000000000E+000   0.00000000000E+000   0.00000000000E+000   0.00000000000E+000
     0.00000000000E+000   0.00000000000E+000   0.00000000000E+000   0.00000000000E+000   0.00000000000E+000   0.00000000000E+000   1.00000006624E+000   0.00000000000E+000   0.00000000000E+000   0.00000000000E+000   0.00000000000E+000   0.00000000000E+000   0.00000000000E+000   0.00000000000E+000   0.00000000000E+000   0.00000000000E+000   0.00000000000E+000   0.00000000000E+000
     0.00000000000E+000   0.00000000000E+000   0.00000000000E+000   0.00000000000E+000   0.00000000000E+000   0.00000000000E+000   0.00000000000E+000  -1.00000006624E+000   0.00000000000E+000   0.00000000000E+000   0.00000000000E+000   0.00000000000E+000   0.00000000000E+000   0.00000000000E+000   0.00000000000E+000   0.00000000000E+000   0.00000000000E+000   0.00000000000E+000