
Linearized model: Predictions were generated on 08-Jan-2024 at 09:43:14 using OpenFAST, compiled as a 64-bit application using single precision at commit v3.5.1
 linked with  NWTC Subroutine Library; ElastoDyn; InflowWind; AeroDyn; ServoDyn; HydroDyn; MoorDyn (v2.0.0, 2023-09-18)

Description from the FAST input file: CCT-9 Campign 4 model. Input files to be run with OpenFAST 3.5.0. GitHub branch from Lu Wang (https://github.com/luwang00/openfast/tree/dev) compiled on March 7, 2023.

Simulation information:
   Simulation time:                  1004.2250 s
   Rotor Speed:                         0.7075 rad/s
   Azimuth:                             2.1760 rad
   Wind Speed:                          8.0000 m/s
   Number of continuous states:        22
   Number of discrete states:           0
   Number of constraint states:         0
   Number of inputs:                 1890
   Number of outputs:                  38
   Jacobians included in this file?    No

Order of continuous states:
   Row/Column Operating Point                     Rotating Frame? Derivative Order Description
   ---------- ---------------                     --------------- ---------------- -----------
          1    5.713E+00                                 F               2         Platform horizontal surge translation DOF (internal DOF index = DOF_Sg), m
          2   -4.764E-01                                 F               2         Platform horizontal sway translation DOF (internal DOF index = DOF_Sw), m
          3   -7.566E-02                                 F               2         Platform vertical heave translation DOF (internal DOF index = DOF_Hv), m
          4    4.394E-02                                 F               2         Platform roll tilt rotation DOF (internal DOF index = DOF_R), rad
          5    8.416E-02                                 F               2         Platform pitch tilt rotation DOF (internal DOF index = DOF_P), rad
          6    2.289E-03                                 F               2         Platform yaw rotation DOF (internal DOF index = DOF_Y), rad
          7    4.621E-01                                 F               2         1st tower fore-aft bending mode DOF (internal DOF index = DOF_TFA1), m
          8    1.719E-01                                 F               2         1st tower side-to-side bending mode DOF (internal DOF index = DOF_TSS1), m
          9    1.458E-03                                 F               2         2nd tower fore-aft bending mode DOF (internal DOF index = DOF_TFA2), m
         10    7.476E-05                                 F               2         2nd tower side-to-side bending mode DOF (internal DOF index = DOF_TSS2), m
         11    6.052E-01                                 F               2         Variable speed generator DOF (internal DOF index = DOF_GeAz), rad
         12   -7.746E-05                                 F               2         First time derivative of Platform horizontal surge translation DOF (internal DOF index = DOF_Sg), m/s
         13   -9.302E-05                                 F               2         First time derivative of Platform horizontal sway translation DOF (internal DOF index = DOF_Sw), m/s
         14   -3.060E-03                                 F               2         First time derivative of Platform vertical heave translation DOF (internal DOF index = DOF_Hv), m/s
         15   -3.361E-05                                 F               2         First time derivative of Platform roll tilt rotation DOF (internal DOF index = DOF_R), rad/s
         16    5.055E-06                                 F               2         First time derivative of Platform pitch tilt rotation DOF (internal DOF index = DOF_P), rad/s
         17    1.689E-06                                 F               2         First time derivative of Platform yaw rotation DOF (internal DOF index = DOF_Y), rad/s
         18   -6.968E-04                                 F               2         First time derivative of 1st tower fore-aft bending mode DOF (internal DOF index = DOF_TFA1), m/s
         19    1.089E-04                                 F               2         First time derivative of 1st tower side-to-side bending mode DOF (internal DOF index = DOF_TSS1), m/s
         20    3.773E-06                                 F               2         First time derivative of 2nd tower fore-aft bending mode DOF (internal DOF index = DOF_TFA2), m/s
         21   -4.714E-07                                 F               2         First time derivative of 2nd tower side-to-side bending mode DOF (internal DOF index = DOF_TSS2), m/s
         22    7.075E-01                                 F               2         First time derivative of Variable speed generator DOF (internal DOF index = DOF_GeAz), rad/s

Order of continuous state derivatives:
   Row/Column Operating Point                     Rotating Frame? Derivative Order Description
   ---------- ---------------                     --------------- ---------------- -----------
          1   -7.746E-05                                 F               2         First time derivative of Platform horizontal surge translation DOF (internal DOF index = DOF_Sg), m/s
          2   -9.302E-05                                 F               2         First time derivative of Platform horizontal sway translation DOF (internal DOF index = DOF_Sw), m/s
          3   -3.060E-03                                 F               2         First time derivative of Platform vertical heave translation DOF (internal DOF index = DOF_Hv), m/s
          4   -3.361E-05                                 F               2         First time derivative of Platform roll tilt rotation DOF (internal DOF index = DOF_R), rad/s
          5    5.055E-06                                 F               2         First time derivative of Platform pitch tilt rotation DOF (internal DOF index = DOF_P), rad/s
          6    1.689E-06                                 F               2         First time derivative of Platform yaw rotation DOF (internal DOF index = DOF_Y), rad/s
          7   -6.968E-04                                 F               2         First time derivative of 1st tower fore-aft bending mode DOF (internal DOF index = DOF_TFA1), m/s
          8    1.089E-04                                 F               2         First time derivative of 1st tower side-to-side bending mode DOF (internal DOF index = DOF_TSS1), m/s
          9    3.773E-06                                 F               2         First time derivative of 2nd tower fore-aft bending mode DOF (internal DOF index = DOF_TFA2), m/s
         10   -4.714E-07                                 F               2         First time derivative of 2nd tower side-to-side bending mode DOF (internal DOF index = DOF_TSS2), m/s
         11    7.075E-01                                 F               2         First time derivative of Variable speed generator DOF (internal DOF index = DOF_GeAz), rad/s
         12    3.503E-05                                 F               2         First time derivative of First time derivative of Platform horizontal surge translation DOF (internal DOF index = DOF_Sg), m/s/s
         13   -3.212E-04                                 F               2         First time derivative of First time derivative of Platform horizontal sway translation DOF (internal DOF index = DOF_Sw), m/s/s
         14    2.322E-04                                 F               2         First time derivative of First time derivative of Platform vertical heave translation DOF (internal DOF index = DOF_Hv), m/s/s
         15    1.800E-05                                 F               2         First time derivative of First time derivative of Platform roll tilt rotation DOF (internal DOF index = DOF_R), rad/s/s
         16    2.802E-06                                 F               2         First time derivative of First time derivative of Platform pitch tilt rotation DOF (internal DOF index = DOF_P), rad/s/s
         17    1.966E-06                                 F               2         First time derivative of First time derivative of Platform yaw rotation DOF (internal DOF index = DOF_Y), rad/s/s
         18   -4.020E-04                                 F               2         First time derivative of First time derivative of 1st tower fore-aft bending mode DOF (internal DOF index = DOF_TFA1), m/s/s
         19   -4.208E-04                                 F               2         First time derivative of First time derivative of 1st tower side-to-side bending mode DOF (internal DOF index = DOF_TSS1), m/s/s
         20    2.169E-07                                 F               2         First time derivative of First time derivative of 2nd tower fore-aft bending mode DOF (internal DOF index = DOF_TFA2), m/s/s
         21    1.440E-06                                 F               2         First time derivative of First time derivative of 2nd tower side-to-side bending mode DOF (internal DOF index = DOF_TSS2), m/s/s
         22    1.503E-04                                 F               2         First time derivative of First time derivative of Variable speed generator DOF (internal DOF index = DOF_GeAz), rad/s/s

Order of inputs:
     Column   Operating Point                     Rotating Frame? Derivative Order Description
   ---------- ---------------                     --------------- ---------------- -----------
          1    6.161E+01                                 F               0         Blade 1 X force, node 1, N
          2   -4.625E+01                                 F               0         Blade 1 Y force, node 1, N
          3    5.050E+01                                 F               0         Blade 1 Z force, node 1, N
          4    2.287E+02                                 F               0         Blade 1 X force, node 2, N
          5   -7.980E+01                                 F               0         Blade 1 Y force, node 2, N
          6    6.463E+01                                 F               0         Blade 1 Z force, node 2, N
          7    2.772E+02                                 F               0         Blade 1 X force, node 3, N
          8   -5.374E+01                                 F               0         Blade 1 Y force, node 3, N
          9    2.089E+01                                 F               0         Blade 1 Z force, node 3, N
         10    3.504E+02                                 F               0         Blade 1 X force, node 4, N
         11   -3.803E+01                                 F               0         Blade 1 Y force, node 4, N
         12   -1.357E+01                                 F               0         Blade 1 Z force, node 4, N
         13    4.237E+02                                 F               0         Blade 1 X force, node 5, N
         14   -2.231E+01                                 F               0         Blade 1 Y force, node 5, N
         15   -4.802E+01                                 F               0         Blade 1 Z force, node 5, N
         16    4.969E+02                                 F               0         Blade 1 X force, node 6, N
         17   -6.598E+00                                 F               0         Blade 1 Y force, node 6, N
         18   -8.248E+01                                 F               0         Blade 1 Z force, node 6, N
         19    5.701E+02                                 F               0         Blade 1 X force, node 7, N
         20    9.118E+00                                 F               0         Blade 1 Y force, node 7, N
         21   -1.169E+02                                 F               0         Blade 1 Z force, node 7, N
         22    6.433E+02                                 F               0         Blade 1 X force, node 8, N
         23    2.483E+01                                 F               0         Blade 1 Y force, node 8, N
         24   -1.514E+02                                 F               0         Blade 1 Z force, node 8, N
         25    7.165E+02                                 F               0         Blade 1 X force, node 9, N
         26    4.055E+01                                 F               0         Blade 1 Y force, node 9, N
         27   -1.859E+02                                 F               0         Blade 1 Z force, node 9, N
         28    7.897E+02                                 F               0         Blade 1 X force, node 10, N
         29    5.626E+01                                 F               0         Blade 1 Y force, node 10, N
         30   -2.203E+02                                 F               0         Blade 1 Z force, node 10, N
         31    8.630E+02                                 F               0         Blade 1 X force, node 11, N
         32    7.198E+01                                 F               0         Blade 1 Y force, node 11, N
         33   -2.548E+02                                 F               0         Blade 1 Z force, node 11, N
         34    9.362E+02                                 F               0         Blade 1 X force, node 12, N
         35    8.769E+01                                 F               0         Blade 1 Y force, node 12, N
         36   -2.892E+02                                 F               0         Blade 1 Z force, node 12, N
         37    1.009E+03                                 F               0         Blade 1 X force, node 13, N
         38    1.034E+02                                 F               0         Blade 1 Y force, node 13, N
         39   -3.237E+02                                 F               0         Blade 1 Z force, node 13, N
         40    1.083E+03                                 F               0         Blade 1 X force, node 14, N
         41    1.191E+02                                 F               0         Blade 1 Y force, node 14, N
         42   -3.581E+02                                 F               0         Blade 1 Z force, node 14, N
         43    1.156E+03                                 F               0         Blade 1 X force, node 15, N
         44    1.348E+02                                 F               0         Blade 1 Y force, node 15, N
         45   -3.926E+02                                 F               0         Blade 1 Z force, node 15, N
         46    1.229E+03                                 F               0         Blade 1 X force, node 16, N
         47    1.506E+02                                 F               0         Blade 1 Y force, node 16, N
         48   -4.271E+02                                 F               0         Blade 1 Z force, node 16, N
         49    1.512E+03                                 F               0         Blade 1 X force, node 17, N
         50    1.922E+02                                 F               0         Blade 1 Y force, node 17, N
         51   -5.347E+02                                 F               0         Blade 1 Z force, node 17, N
         52    1.168E+03                                 F               0         Blade 1 X force, node 18, N
         53    1.443E+02                                 F               0         Blade 1 Y force, node 18, N
         54   -4.075E+02                                 F               0         Blade 1 Z force, node 18, N
         55    1.453E+03                                 F               0         Blade 1 X force, node 19, N
         56    1.711E+02                                 F               0         Blade 1 Y force, node 19, N
         57   -4.958E+02                                 F               0         Blade 1 Z force, node 19, N
         58    1.255E+03                                 F               0         Blade 1 X force, node 20, N
         59    1.412E+02                                 F               0         Blade 1 Y force, node 20, N
         60   -4.194E+02                                 F               0         Blade 1 Z force, node 20, N
         61    1.880E+03                                 F               0         Blade 1 X force, node 21, N
         62    2.006E+02                                 F               0         Blade 1 Y force, node 21, N
         63   -6.135E+02                                 F               0         Blade 1 Z force, node 21, N
         64    1.681E+03                                 F               0         Blade 1 X force, node 22, N
         65    1.698E+02                                 F               0         Blade 1 Y force, node 22, N
         66   -5.359E+02                                 F               0         Blade 1 Z force, node 22, N
         67    1.746E+03                                 F               0         Blade 1 X force, node 23, N
         68    1.679E+02                                 F               0         Blade 1 Y force, node 23, N
         69   -5.453E+02                                 F               0         Blade 1 Z force, node 23, N
         70    1.843E+03                                 F               0         Blade 1 X force, node 24, N
         71    1.688E+02                                 F               0         Blade 1 Y force, node 24, N
         72   -5.643E+02                                 F               0         Blade 1 Z force, node 24, N
         73    1.907E+03                                 F               0         Blade 1 X force, node 25, N
         74    1.664E+02                                 F               0         Blade 1 Y force, node 25, N
         75   -5.729E+02                                 F               0         Blade 1 Z force, node 25, N
         76    1.982E+03                                 F               0         Blade 1 X force, node 26, N
         77    1.648E+02                                 F               0         Blade 1 Y force, node 26, N
         78   -5.845E+02                                 F               0         Blade 1 Z force, node 26, N
         79    2.397E+03                                 F               0         Blade 1 X force, node 27, N
         80    1.896E+02                                 F               0         Blade 1 Y force, node 27, N
         81   -6.938E+02                                 F               0         Blade 1 Z force, node 27, N
         82    1.792E+03                                 F               0         Blade 1 X force, node 28, N
         83    1.349E+02                                 F               0         Blade 1 Y force, node 28, N
         84   -5.096E+02                                 F               0         Blade 1 Z force, node 28, N
         85    2.206E+03                                 F               0         Blade 1 X force, node 29, N
         86    1.594E+02                                 F               0         Blade 1 Y force, node 29, N
         87   -6.184E+02                                 F               0         Blade 1 Z force, node 29, N
         88    1.889E+03                                 F               0         Blade 1 X force, node 30, N
         89    1.310E+02                                 F               0         Blade 1 Y force, node 30, N
         90   -5.221E+02                                 F               0         Blade 1 Z force, node 30, N
         91    2.747E+03                                 F               0         Blade 1 X force, node 31, N
         92    1.817E+02                                 F               0         Blade 1 Y force, node 31, N
         93   -7.477E+02                                 F               0         Blade 1 Z force, node 31, N
         94    2.429E+03                                 F               0         Blade 1 X force, node 32, N
         95    1.530E+02                                 F               0         Blade 1 Y force, node 32, N
         96   -6.509E+02                                 F               0         Blade 1 Z force, node 32, N
         97    2.503E+03                                 F               0         Blade 1 X force, node 33, N
         98    1.507E+02                                 F               0         Blade 1 Y force, node 33, N
         99   -6.613E+02                                 F               0         Blade 1 Z force, node 33, N
        100    2.577E+03                                 F               0         Blade 1 X force, node 34, N
        101    1.483E+02                                 F               0         Blade 1 Y force, node 34, N
        102   -6.718E+02                                 F               0         Blade 1 Z force, node 34, N
        103    2.651E+03                                 F               0         Blade 1 X force, node 35, N
        104    1.458E+02                                 F               0         Blade 1 Y force, node 35, N
        105   -6.821E+02                                 F               0         Blade 1 Z force, node 35, N
        106    2.724E+03                                 F               0         Blade 1 X force, node 36, N
        107    1.433E+02                                 F               0         Blade 1 Y force, node 36, N
        108   -6.921E+02                                 F               0         Blade 1 Z force, node 36, N
        109    3.275E+03                                 F               0         Blade 1 X force, node 37, N
        110    1.642E+02                                 F               0         Blade 1 Y force, node 37, N
        111   -8.211E+02                                 F               0         Blade 1 Z force, node 37, N
        112    2.395E+03                                 F               0         Blade 1 X force, node 38, N
        113    1.146E+02                                 F               0         Blade 1 Y force, node 38, N
        114   -5.933E+02                                 F               0         Blade 1 Z force, node 38, N
        115    2.946E+03                                 F               0         Blade 1 X force, node 39, N
        116    1.354E+02                                 F               0         Blade 1 Y force, node 39, N
        117   -7.223E+02                                 F               0         Blade 1 Z force, node 39, N
        118    2.520E+03                                 F               0         Blade 1 X force, node 40, N
        119    1.113E+02                                 F               0         Blade 1 Y force, node 40, N
        120   -6.119E+02                                 F               0         Blade 1 Z force, node 40, N
        121    3.593E+03                                 F               0         Blade 1 X force, node 41, N
        122    1.514E+02                                 F               0         Blade 1 Y force, node 41, N
        123   -8.626E+02                                 F               0         Blade 1 Z force, node 41, N
        124    3.166E+03                                 F               0         Blade 1 X force, node 42, N
        125    1.271E+02                                 F               0         Blade 1 Y force, node 42, N
        126   -7.517E+02                                 F               0         Blade 1 Z force, node 42, N
        127    3.239E+03                                 F               0         Blade 1 X force, node 43, N
        128    1.242E+02                                 F               0         Blade 1 Y force, node 43, N
        129   -7.611E+02                                 F               0         Blade 1 Z force, node 43, N
        130    3.329E+03                                 F               0         Blade 1 X force, node 44, N
        131    1.219E+02                                 F               0         Blade 1 Y force, node 44, N
        132   -7.747E+02                                 F               0         Blade 1 Z force, node 44, N
        133    3.367E+03                                 F               0         Blade 1 X force, node 45, N
        134    1.177E+02                                 F               0         Blade 1 Y force, node 45, N
        135   -7.759E+02                                 F               0         Blade 1 Z force, node 45, N
        136    3.457E+03                                 F               0         Blade 1 X force, node 46, N
        137    1.153E+02                                 F               0         Blade 1 Y force, node 46, N
        138   -7.894E+02                                 F               0         Blade 1 Z force, node 46, N
        139    4.149E+03                                 F               0         Blade 1 X force, node 47, N
        140    1.317E+02                                 F               0         Blade 1 Y force, node 47, N
        141   -9.385E+02                                 F               0         Blade 1 Z force, node 47, N
        142    2.982E+03                                 F               0         Blade 1 X force, node 48, N
        143    8.999E+01                                 F               0         Blade 1 Y force, node 48, N
        144   -6.682E+02                                 F               0         Blade 1 Z force, node 48, N
        145    3.674E+03                                 F               0         Blade 1 X force, node 49, N
        146    1.062E+02                                 F               0         Blade 1 Y force, node 49, N
        147   -8.170E+02                                 F               0         Blade 1 Z force, node 49, N
        148    3.150E+03                                 F               0         Blade 1 X force, node 50, N
        149    8.715E+01                                 F               0         Blade 1 Y force, node 50, N
        150   -6.952E+02                                 F               0         Blade 1 Z force, node 50, N
        151    4.415E+03                                 F               0         Blade 1 X force, node 51, N
        152    1.160E+02                                 F               0         Blade 1 Y force, node 51, N
        153   -9.663E+02                                 F               0         Blade 1 Z force, node 51, N
        154    3.891E+03                                 F               0         Blade 1 X force, node 52, N
        155    9.696E+01                                 F               0         Blade 1 Y force, node 52, N
        156   -8.446E+02                                 F               0         Blade 1 Z force, node 52, N
        157    3.964E+03                                 F               0         Blade 1 X force, node 53, N
        158    9.388E+01                                 F               0         Blade 1 Y force, node 53, N
        159   -8.540E+02                                 F               0         Blade 1 Z force, node 53, N
        160    4.082E+03                                 F               0         Blade 1 X force, node 54, N
        161    9.177E+01                                 F               0         Blade 1 Y force, node 54, N
        162   -8.727E+02                                 F               0         Blade 1 Z force, node 54, N
        163    4.065E+03                                 F               0         Blade 1 X force, node 55, N
        164    8.666E+01                                 F               0         Blade 1 Y force, node 55, N
        165   -8.629E+02                                 F               0         Blade 1 Z force, node 55, N
        166    4.182E+03                                 F               0         Blade 1 X force, node 56, N
        167    8.447E+01                                 F               0         Blade 1 Y force, node 56, N
        168   -8.814E+02                                 F               0         Blade 1 Z force, node 56, N
        169    5.025E+03                                 F               0         Blade 1 X force, node 57, N
        170    9.564E+01                                 F               0         Blade 1 Y force, node 57, N
        171   -1.051E+03                                 F               0         Blade 1 Z force, node 57, N
        172    3.557E+03                                 F               0         Blade 1 X force, node 58, N
        173    6.375E+01                                 F               0         Blade 1 Y force, node 58, N
        174   -7.387E+02                                 F               0         Blade 1 Z force, node 58, N
        175    4.400E+03                                 F               0         Blade 1 X force, node 59, N
        176    7.488E+01                                 F               0         Blade 1 Y force, node 59, N
        177   -9.085E+02                                 F               0         Blade 1 Z force, node 59, N
        178    3.787E+03                                 F               0         Blade 1 X force, node 60, N
        179    6.106E+01                                 F               0         Blade 1 Y force, node 60, N
        180   -7.775E+02                                 F               0         Blade 1 Z force, node 60, N
        181    5.229E+03                                 F               0         Blade 1 X force, node 61, N
        182    7.901E+01                                 F               0         Blade 1 Y force, node 61, N
        183   -1.066E+03                                 F               0         Blade 1 Z force, node 61, N
        184    4.615E+03                                 F               0         Blade 1 X force, node 62, N