
Linearized model: Predictions were generated on 08-Jan-2024 at 09:43:14 using OpenFAST, compiled as a 64-bit application using single precision at commit v3.5.1
 linked with  NWTC Subroutine Library; ElastoDyn; InflowWind; AeroDyn; ServoDyn; HydroDyn; MoorDyn (v2.0.0, 2023-09-18)

Description from the FAST input file: CCT-9 Campign 4 model. Input files to be run with OpenFAST 3.5.0. GitHub branch from Lu Wang (https://github.com/luwang00/openfast/tree/dev) compiled on March 7, 2023.

Simulation information:
   Simulation time:                  1001.2500 s
   Rotor Speed:                         0.7074 rad/s
   Azimuth:                             0.0715 rad
   Wind Speed:                          8.0000 m/s
   Number of continuous states:        22
   Number of discrete states:           0
   Number of constraint states:         0
   Number of inputs:                 1890
   Number of outputs:                  38
   Jacobians included in this file?    No

Order of continuous states:
   Row/Column Operating Point                     Rotating Frame? Derivative Order Description
   ---------- ---------------                     --------------- ---------------- -----------
          1    5.713E+00                                 F               2         Platform horizontal surge translation DOF (internal DOF index = DOF_Sg), m
          2   -4.768E-01                                 F               2         Platform horizontal sway translation DOF (internal DOF index = DOF_Sw), m
          3   -6.657E-02                                 F               2         Platform vertical heave translation DOF (internal DOF index = DOF_Hv), m
          4    4.406E-02                                 F               2         Platform roll tilt rotation DOF (internal DOF index = DOF_R), rad
          5    8.416E-02                                 F               2         Platform pitch tilt rotation DOF (internal DOF index = DOF_P), rad
          6    2.286E-03                                 F               2         Platform yaw rotation DOF (internal DOF index = DOF_Y), rad
          7    4.621E-01                                 F               2         1st tower fore-aft bending mode DOF (internal DOF index = DOF_TFA1), m
          8    1.713E-01                                 F               2         1st tower side-to-side bending mode DOF (internal DOF index = DOF_TSS1), m
          9    1.457E-03                                 F               2         2nd tower fore-aft bending mode DOF (internal DOF index = DOF_TFA2), m
         10    7.659E-05                                 F               2         2nd tower side-to-side bending mode DOF (internal DOF index = DOF_TSS2), m
         11    4.784E+00                                 F               2         Variable speed generator DOF (internal DOF index = DOF_GeAz), rad
         12   -1.645E-04                                 F               2         First time derivative of Platform horizontal surge translation DOF (internal DOF index = DOF_Sg), m/s
         13    1.391E-04                                 F               2         First time derivative of Platform horizontal sway translation DOF (internal DOF index = DOF_Sw), m/s
         14   -2.645E-03                                 F               2         First time derivative of Platform vertical heave translation DOF (internal DOF index = DOF_Hv), m/s
         15   -2.983E-05                                 F               2         First time derivative of Platform roll tilt rotation DOF (internal DOF index = DOF_R), rad/s
         16   -3.332E-06                                 F               2         First time derivative of Platform pitch tilt rotation DOF (internal DOF index = DOF_P), rad/s
         17    1.399E-06                                 F               2         First time derivative of Platform yaw rotation DOF (internal DOF index = DOF_Y), rad/s
         18   -3.958E-04                                 F               2         First time derivative of 1st tower fore-aft bending mode DOF (internal DOF index = DOF_TFA1), m/s
         19    8.045E-05                                 F               2         First time derivative of 1st tower side-to-side bending mode DOF (internal DOF index = DOF_TSS1), m/s
         20    8.097E-07                                 F               2         First time derivative of 2nd tower fore-aft bending mode DOF (internal DOF index = DOF_TFA2), m/s
         21   -4.373E-07                                 F               2         First time derivative of 2nd tower side-to-side bending mode DOF (internal DOF index = DOF_TSS2), m/s
         22    7.074E-01                                 F               2         First time derivative of Variable speed generator DOF (internal DOF index = DOF_GeAz), rad/s

Order of continuous state derivatives:
   Row/Column Operating Point                     Rotating Frame? Derivative Order Description
   ---------- ---------------                     --------------- ---------------- -----------
          1   -1.645E-04                                 F               2         First time derivative of Platform horizontal surge translation DOF (internal DOF index = DOF_Sg), m/s
          2    1.391E-04                                 F               2         First time derivative of Platform horizontal sway translation DOF (internal DOF index = DOF_Sw), m/s
          3   -2.645E-03                                 F               2         First time derivative of Platform vertical heave translation DOF (internal DOF index = DOF_Hv), m/s
          4   -2.983E-05                                 F               2         First time derivative of Platform roll tilt rotation DOF (internal DOF index = DOF_R), rad/s
          5   -3.332E-06                                 F               2         First time derivative of Platform pitch tilt rotation DOF (internal DOF index = DOF_P), rad/s
          6    1.399E-06                                 F               2         First time derivative of Platform yaw rotation DOF (internal DOF index = DOF_Y), rad/s
          7   -3.958E-04                                 F               2         First time derivative of 1st tower fore-aft bending mode DOF (internal DOF index = DOF_TFA1), m/s
          8    8.045E-05                                 F               2         First time derivative of 1st tower side-to-side bending mode DOF (internal DOF index = DOF_TSS1), m/s
          9    8.097E-07                                 F               2         First time derivative of 2nd tower fore-aft bending mode DOF (internal DOF index = DOF_TFA2), m/s
         10   -4.373E-07                                 F               2         First time derivative of 2nd tower side-to-side bending mode DOF (internal DOF index = DOF_TSS2), m/s
         11    7.074E-01                                 F               2         First time derivative of Variable speed generator DOF (internal DOF index = DOF_GeAz), rad/s
         12    4.075E-05                                 F               2         First time derivative of First time derivative of Platform horizontal surge translation DOF (internal DOF index = DOF_Sg), m/s/s
         13    1.283E-04                                 F               2         First time derivative of First time derivative of Platform horizontal sway translation DOF (internal DOF index = DOF_Sw), m/s/s
         14   -5.837E-04                                 F               2         First time derivative of First time derivative of Platform vertical heave translation DOF (internal DOF index = DOF_Hv), m/s/s
         15   -1.846E-05                                 F               2         First time derivative of First time derivative of Platform roll tilt rotation DOF (internal DOF index = DOF_R), rad/s/s
         16    3.546E-06                                 F               2         First time derivative of First time derivative of Platform pitch tilt rotation DOF (internal DOF index = DOF_P), rad/s/s
         17    4.952E-07                                 F               2         First time derivative of First time derivative of Platform yaw rotation DOF (internal DOF index = DOF_Y), rad/s/s
         18   -4.373E-04                                 F               2         First time derivative of First time derivative of 1st tower fore-aft bending mode DOF (internal DOF index = DOF_TFA1), m/s/s
         19    2.547E-05                                 F               2         First time derivative of First time derivative of 1st tower side-to-side bending mode DOF (internal DOF index = DOF_TSS1), m/s/s
         20    1.255E-06                                 F               2         First time derivative of First time derivative of 2nd tower fore-aft bending mode DOF (internal DOF index = DOF_TFA2), m/s/s
         21    2.172E-06                                 F               2         First time derivative of First time derivative of 2nd tower side-to-side bending mode DOF (internal DOF index = DOF_TSS2), m/s/s
         22   -1.198E-04                                 F               2         First time derivative of First time derivative of Variable speed generator DOF (internal DOF index = DOF_GeAz), rad/s/s

Order of inputs:
     Column   Operating Point                     Rotating Frame? Derivative Order Description
   ---------- ---------------                     --------------- ---------------- -----------
          1    4.707E+01                                 F               0         Blade 1 X force, node 1, N
          2    5.271E+01                                 F               0         Blade 1 Y force, node 1, N
          3   -2.989E+00                                 F               0         Blade 1 Z force, node 1, N
          4    1.985E+02                                 F               0         Blade 1 X force, node 2, N
          5    1.006E+02                                 F               0         Blade 1 Y force, node 2, N
          6   -2.713E+01                                 F               0         Blade 1 Z force, node 2, N
          7    2.555E+02                                 F               0         Blade 1 X force, node 3, N
          8    6.389E+01                                 F               0         Blade 1 Y force, node 3, N
          9   -4.277E+01                                 F               0         Blade 1 Z force, node 3, N
         10    3.337E+02                                 F               0         Blade 1 X force, node 4, N
         11    3.947E+01                                 F               0         Blade 1 Y force, node 4, N
         12   -6.111E+01                                 F               0         Blade 1 Z force, node 4, N
         13    4.119E+02                                 F               0         Blade 1 X force, node 5, N
         14    1.504E+01                                 F               0         Blade 1 Y force, node 5, N
         15   -7.945E+01                                 F               0         Blade 1 Z force, node 5, N
         16    4.900E+02                                 F               0         Blade 1 X force, node 6, N
         17   -9.379E+00                                 F               0         Blade 1 Y force, node 6, N
         18   -9.779E+01                                 F               0         Blade 1 Z force, node 6, N
         19    5.682E+02                                 F               0         Blade 1 X force, node 7, N
         20   -3.380E+01                                 F               0         Blade 1 Y force, node 7, N
         21   -1.161E+02                                 F               0         Blade 1 Z force, node 7, N
         22    6.464E+02                                 F               0         Blade 1 X force, node 8, N
         23   -5.822E+01                                 F               0         Blade 1 Y force, node 8, N
         24   -1.345E+02                                 F               0         Blade 1 Z force, node 8, N
         25    7.246E+02                                 F               0         Blade 1 X force, node 9, N
         26   -8.265E+01                                 F               0         Blade 1 Y force, node 9, N
         27   -1.528E+02                                 F               0         Blade 1 Z force, node 9, N
         28    8.027E+02                                 F               0         Blade 1 X force, node 10, N
         29   -1.071E+02                                 F               0         Blade 1 Y force, node 10, N
         30   -1.711E+02                                 F               0         Blade 1 Z force, node 10, N
         31    8.809E+02                                 F               0         Blade 1 X force, node 11, N
         32   -1.315E+02                                 F               0         Blade 1 Y force, node 11, N
         33   -1.895E+02                                 F               0         Blade 1 Z force, node 11, N
         34    9.591E+02                                 F               0         Blade 1 X force, node 12, N
         35   -1.559E+02                                 F               0         Blade 1 Y force, node 12, N
         36   -2.078E+02                                 F               0         Blade 1 Z force, node 12, N
         37    1.037E+03                                 F               0         Blade 1 X force, node 13, N
         38   -1.803E+02                                 F               0         Blade 1 Y force, node 13, N
         39   -2.262E+02                                 F               0         Blade 1 Z force, node 13, N
         40    1.115E+03                                 F               0         Blade 1 X force, node 14, N
         41   -2.048E+02                                 F               0         Blade 1 Y force, node 14, N
         42   -2.445E+02                                 F               0         Blade 1 Z force, node 14, N
         43    1.194E+03                                 F               0         Blade 1 X force, node 15, N
         44   -2.292E+02                                 F               0         Blade 1 Y force, node 15, N
         45   -2.628E+02                                 F               0         Blade 1 Z force, node 15, N
         46    1.272E+03                                 F               0         Blade 1 X force, node 16, N
         47   -2.536E+02                                 F               0         Blade 1 Y force, node 16, N
         48   -2.812E+02                                 F               0         Blade 1 Z force, node 16, N
         49    1.566E+03                                 F               0         Blade 1 X force, node 17, N
         50   -3.210E+02                                 F               0         Blade 1 Y force, node 17, N
         51   -3.473E+02                                 F               0         Blade 1 Z force, node 17, N
         52    1.203E+03                                 F               0         Blade 1 X force, node 18, N
         53   -2.373E+02                                 F               0         Blade 1 Y force, node 18, N
         54   -2.657E+02                                 F               0         Blade 1 Z force, node 18, N
         55    1.487E+03                                 F               0         Blade 1 X force, node 19, N
         56   -2.767E+02                                 F               0         Blade 1 Y force, node 19, N
         57   -3.264E+02                                 F               0         Blade 1 Z force, node 19, N
         58    1.276E+03                                 F               0         Blade 1 X force, node 20, N
         59   -2.245E+02                                 F               0         Blade 1 Y force, node 20, N
         60   -2.785E+02                                 F               0         Blade 1 Z force, node 20, N
         61    1.898E+03                                 F               0         Blade 1 X force, node 21, N
         62   -3.127E+02                                 F               0         Blade 1 Y force, node 21, N
         63   -4.117E+02                                 F               0         Blade 1 Z force, node 21, N
         64    1.687E+03                                 F               0         Blade 1 X force, node 22, N
         65   -2.598E+02                                 F               0         Blade 1 Y force, node 22, N
         66   -3.637E+02                                 F               0         Blade 1 Z force, node 22, N
         67    1.743E+03                                 F               0         Blade 1 X force, node 23, N
         68   -2.523E+02                                 F               0         Blade 1 Y force, node 23, N
         69   -3.739E+02                                 F               0         Blade 1 Z force, node 23, N
         70    1.830E+03                                 F               0         Blade 1 X force, node 24, N
         71   -2.490E+02                                 F               0         Blade 1 Y force, node 24, N
         72   -3.907E+02                                 F               0         Blade 1 Z force, node 24, N
         73    1.885E+03                                 F               0         Blade 1 X force, node 25, N
         74   -2.411E+02                                 F               0         Blade 1 Y force, node 25, N
         75   -4.006E+02                                 F               0         Blade 1 Z force, node 25, N
         76    1.950E+03                                 F               0         Blade 1 X force, node 26, N
         77   -2.345E+02                                 F               0         Blade 1 Y force, node 26, N
         78   -4.128E+02                                 F               0         Blade 1 Z force, node 26, N
         79    2.349E+03                                 F               0         Blade 1 X force, node 27, N
         80   -2.644E+02                                 F               0         Blade 1 Y force, node 27, N
         81   -4.949E+02                                 F               0         Blade 1 Z force, node 27, N
         82    1.749E+03                                 F               0         Blade 1 X force, node 28, N
         83   -1.845E+02                                 F               0         Blade 1 Y force, node 28, N
         84   -3.670E+02                                 F               0         Blade 1 Z force, node 28, N
         85    2.147E+03                                 F               0         Blade 1 X force, node 29, N
         86   -2.142E+02                                 F               0         Blade 1 Y force, node 29, N
         87   -4.491E+02                                 F               0         Blade 1 Z force, node 29, N
         88    1.833E+03                                 F               0         Blade 1 X force, node 30, N
         89   -1.729E+02                                 F               0         Blade 1 Y force, node 30, N
         90   -3.822E+02                                 F               0         Blade 1 Z force, node 30, N
         91    2.658E+03                                 F               0         Blade 1 X force, node 31, N
         92   -2.347E+02                                 F               0         Blade 1 Y force, node 31, N
         93   -5.523E+02                                 F               0         Blade 1 Z force, node 31, N
         94    2.343E+03                                 F               0         Blade 1 X force, node 32, N
         95   -1.932E+02                                 F               0         Blade 1 Y force, node 32, N
         96   -4.853E+02                                 F               0         Blade 1 Z force, node 32, N
         97    2.408E+03                                 F               0         Blade 1 X force, node 33, N
         98   -1.860E+02                                 F               0         Blade 1 Y force, node 33, N
         99   -4.972E+02                                 F               0         Blade 1 Z force, node 33, N
        100    2.473E+03                                 F               0         Blade 1 X force, node 34, N
        101   -1.789E+02                                 F               0         Blade 1 Y force, node 34, N
        102   -5.092E+02                                 F               0         Blade 1 Z force, node 34, N
        103    2.538E+03                                 F               0         Blade 1 X force, node 35, N
        104   -1.716E+02                                 F               0         Blade 1 Y force, node 35, N
        105   -5.212E+02                                 F               0         Blade 1 Z force, node 35, N
        106    2.603E+03                                 F               0         Blade 1 X force, node 36, N
        107   -1.643E+02                                 F               0         Blade 1 Y force, node 36, N
        108   -5.331E+02                                 F               0         Blade 1 Z force, node 36, N
        109    3.122E+03                                 F               0         Blade 1 X force, node 37, N
        110   -1.829E+02                                 F               0         Blade 1 Y force, node 37, N
        111   -6.377E+02                                 F               0         Blade 1 Z force, node 37, N
        112    2.279E+03                                 F               0         Blade 1 X force, node 38, N
        113   -1.238E+02                                 F               0         Blade 1 Y force, node 38, N
        114   -4.644E+02                                 F               0         Blade 1 Z force, node 38, N
        115    2.799E+03                                 F               0         Blade 1 X force, node 39, N
        116   -1.424E+02                                 F               0         Blade 1 Y force, node 39, N
        117   -5.691E+02                                 F               0         Blade 1 Z force, node 39, N
        118    2.391E+03                                 F               0         Blade 1 X force, node 40, N
        119   -1.137E+02                                 F               0         Blade 1 Y force, node 40, N
        120   -4.852E+02                                 F               0         Blade 1 Z force, node 40, N
        121    3.403E+03                                 F               0         Blade 1 X force, node 41, N
        122   -1.490E+02                                 F               0         Blade 1 Y force, node 41, N
        123   -6.891E+02                                 F               0         Blade 1 Z force, node 41, N
        124    2.994E+03                                 F               0         Blade 1 X force, node 42, N
        125   -1.201E+02                                 F               0         Blade 1 Y force, node 42, N
        126   -6.049E+02                                 F               0         Blade 1 Z force, node 42, N
        127    3.058E+03                                 F               0         Blade 1 X force, node 43, N
        128   -1.126E+02                                 F               0         Blade 1 Y force, node 43, N
        129   -6.168E+02                                 F               0         Blade 1 Z force, node 43, N
        130    3.139E+03                                 F               0         Blade 1 X force, node 44, N
        131   -1.056E+02                                 F               0         Blade 1 Y force, node 44, N
        132   -6.319E+02                                 F               0         Blade 1 Z force, node 44, N
        133    3.171E+03                                 F               0         Blade 1 X force, node 45, N
        134   -9.698E+01                                 F               0         Blade 1 Y force, node 45, N
        135   -6.371E+02                                 F               0         Blade 1 Z force, node 45, N
        136    3.252E+03                                 F               0         Blade 1 X force, node 46, N
        137   -8.996E+01                                 F               0         Blade 1 Y force, node 46, N
        138   -6.522E+02                                 F               0         Blade 1 Z force, node 46, N
        139    3.899E+03                                 F               0         Blade 1 X force, node 47, N
        140   -9.614E+01                                 F               0         Blade 1 Y force, node 47, N
        141   -7.805E+02                                 F               0         Blade 1 Z force, node 47, N
        142    2.799E+03                                 F               0         Blade 1 X force, node 48, N
        143   -6.104E+01                                 F               0         Blade 1 Y force, node 48, N
        144   -5.593E+02                                 F               0         Blade 1 Z force, node 48, N
        145    3.445E+03                                 F               0         Blade 1 X force, node 49, N
        146   -6.714E+01                                 F               0         Blade 1 Y force, node 49, N
        147   -6.876E+02                                 F               0         Blade 1 Z force, node 49, N
        148    2.951E+03                                 F               0         Blade 1 X force, node 50, N
        149   -5.080E+01                                 F               0         Blade 1 Y force, node 50, N
        150   -5.881E+02                                 F               0         Blade 1 Z force, node 50, N
        151    4.132E+03                                 F               0         Blade 1 X force, node 51, N
        152   -6.055E+01                                 F               0         Blade 1 Y force, node 51, N
        153   -8.223E+02                                 F               0         Blade 1 Z force, node 51, N
        154    3.639E+03                                 F               0         Blade 1 X force, node 52, N
        155   -4.426E+01                                 F               0         Blade 1 Y force, node 52, N
        156   -7.231E+02                                 F               0         Blade 1 Z force, node 52, N
        157    3.704E+03                                 F               0         Blade 1 X force, node 53, N
        158   -3.665E+01                                 F               0         Blade 1 Y force, node 53, N
        159   -7.350E+02                                 F               0         Blade 1 Z force, node 53, N
        160    3.810E+03                                 F               0         Blade 1 X force, node 54, N
        161   -2.933E+01                                 F               0         Blade 1 Y force, node 54, N
        162   -7.551E+02                                 F               0         Blade 1 Z force, node 54, N
        163    3.792E+03                                 F               0         Blade 1 X force, node 55, N
        164   -2.109E+01                                 F               0         Blade 1 Y force, node 55, N
        165   -7.505E+02                                 F               0         Blade 1 Z force, node 55, N
        166    3.898E+03                                 F               0         Blade 1 X force, node 56, N
        167   -1.371E+01                                 F               0         Blade 1 Y force, node 56, N
        168   -7.706E+02                                 F               0         Blade 1 Z force, node 56, N
        169    4.680E+03                                 F               0         Blade 1 X force, node 57, N
        170   -6.503E+00                                 F               0         Blade 1 Y force, node 57, N
        171   -9.240E+02                                 F               0         Blade 1 Z force, node 57, N
        172    3.310E+03                                 F               0         Blade 1 X force, node 58, N
        173    2.109E+00                                 F               0         Blade 1 Y force, node 58, N
        174   -6.527E+02                                 F               0         Blade 1 Z force, node 58, N
        175    4.092E+03                                 F               0         Blade 1 X force, node 59, N
        176    9.353E+00                                 F               0         Blade 1 Y force, node 59, N
        177   -8.061E+02                                 F               0         Blade 1 Z force, node 59, N
        178    3.520E+03                                 F               0         Blade 1 X force, node 60, N
        179    1.381E+01                                 F               0         Blade 1 Y force, node 60, N
        180   -6.928E+02                                 F               0         Blade 1 Z force, node 60, N
        181    4.858E+03                                 F               0         Blade 1 X force, node 61, N
        182    2.805E+01                                 F               0         Blade 1 Y force, node 61, N
        183   -9.550E+02                                 F               0         Blade 1 Z force, node 61, N
        184    4.285E+03                                 F               0         Blade 1 X force, node 62, N