
Linearized model: Predictions were generated on 20-Feb-2024 at 08:38:00 using OpenFAST, compiled as a 64-bit application using single precision at commit v3.5.1
 linked with  NWTC Subroutine Library; ElastoDyn; InflowWind; AeroDyn; ServoDyn; HydroDyn; MAP++ (<1.20.10>, <Oct-20-2023>)

Description from the FAST input file: CCT-9 Campign 4 model. Input files to be run with OpenFAST 3.5.0. GitHub branch from Lu Wang (https://github.com/luwang00/openfast/tree/dev) compiled on March 7, 2023.

Simulation information:
   Simulation time:                   895.0250 s
   Rotor Speed:                         0.7918 rad/s
   Azimuth:                             4.3748 rad
   Wind Speed:                         24.0000 m/s
   Number of continuous states:        18
   Number of discrete states:           0
   Number of constraint states:         0
   Number of inputs:                    6
   Number of outputs:                  25
   Jacobians included in this file?    No

Order of continuous states:
   Row/Column Operating Point                                                   Rotating Frame? Derivative Order Description
   ---------- ---------------                                                   --------------- ---------------- -----------
          1     6.83461809158E+000                                                     F               2         Platform horizontal surge translation DOF (internal DOF index = DOF_Sg), m
          2    -8.14025104046E-001                                                     F               2         Platform horizontal sway translation DOF (internal DOF index = DOF_Sw), m
          3    -1.15373797715E-001                                                     F               2         Platform vertical heave translation DOF (internal DOF index = DOF_Hv), m
          4     5.41801825166E-002                                                     F               2         Platform roll tilt rotation DOF (internal DOF index = DOF_R), rad
          5     9.51497554779E-002                                                     F               2         Platform pitch tilt rotation DOF (internal DOF index = DOF_P), rad
          6    -9.23260953277E-003                                                     F               2         Platform yaw rotation DOF (internal DOF index = DOF_Y), rad
          7     5.66144406796E-001                                                     F               2         1st tower fore-aft bending mode DOF (internal DOF index = DOF_TFA1), m
          8     2.74445265532E-001                                                     F               2         1st tower side-to-side bending mode DOF (internal DOF index = DOF_TSS1), m
          9     2.80402541161E+000                                                     F               2         Variable speed generator DOF (internal DOF index = DOF_GeAz), rad
         10    -1.87594187446E-003                                                     F               2         First time derivative of Platform horizontal surge translation DOF (internal DOF index = DOF_Sg), m/s
         11     1.99359477847E-004                                                     F               2         First time derivative of Platform horizontal sway translation DOF (internal DOF index = DOF_Sw), m/s
         12     4.11799876019E-003                                                     F               2         First time derivative of Platform vertical heave translation DOF (internal DOF index = DOF_Hv), m/s
         13     1.10194589070E-004                                                     F               2         First time derivative of Platform roll tilt rotation DOF (internal DOF index = DOF_R), rad/s
         14    -1.31153850816E-004                                                     F               2         First time derivative of Platform pitch tilt rotation DOF (internal DOF index = DOF_P), rad/s
         15    -1.08866261144E-005                                                     F               2         First time derivative of Platform yaw rotation DOF (internal DOF index = DOF_Y), rad/s
         16     2.86836158484E-002                                                     F               2         First time derivative of 1st tower fore-aft bending mode DOF (internal DOF index = DOF_TFA1), m/s
         17    -1.30434455350E-002                                                     F               2         First time derivative of 1st tower side-to-side bending mode DOF (internal DOF index = DOF_TSS1), m/s
         18     7.91814327240E-001                                                     F               2         First time derivative of Variable speed generator DOF (internal DOF index = DOF_GeAz), rad/s

Order of continuous state derivatives:
   Row/Column Operating Point                                                   Rotating Frame? Derivative Order Description
   ---------- ---------------                                                   --------------- ---------------- -----------
          1    -1.87594187446E-003                                                     F               2         First time derivative of Platform horizontal surge translation DOF (internal DOF index = DOF_Sg), m/s
          2     1.99359477847E-004                                                     F               2         First time derivative of Platform horizontal sway translation DOF (internal DOF index = DOF_Sw), m/s
          3     4.11799876019E-003                                                     F               2         First time derivative of Platform vertical heave translation DOF (internal DOF index = DOF_Hv), m/s
          4     1.10194589070E-004                                                     F               2         First time derivative of Platform roll tilt rotation DOF (internal DOF index = DOF_R), rad/s
          5    -1.31153850816E-004                                                     F               2         First time derivative of Platform pitch tilt rotation DOF (internal DOF index = DOF_P), rad/s
          6    -1.08866261144E-005                                                     F               2         First time derivative of Platform yaw rotation DOF (internal DOF index = DOF_Y), rad/s
          7     2.86836158484E-002                                                     F               2         First time derivative of 1st tower fore-aft bending mode DOF (internal DOF index = DOF_TFA1), m/s
          8    -1.30434455350E-002                                                     F               2         First time derivative of 1st tower side-to-side bending mode DOF (internal DOF index = DOF_TSS1), m/s
          9     7.91814327240E-001                                                     F               2         First time derivative of Variable speed generator DOF (internal DOF index = DOF_GeAz), rad/s
         10     7.96941574663E-003                                                     F               2         First time derivative of First time derivative of Platform horizontal surge translation DOF (internal DOF index = DOF_Sg), m/s/s
         11    -3.18566546775E-003                                                     F               2         First time derivative of First time derivative of Platform horizontal sway translation DOF (internal DOF index = DOF_Sw), m/s/s
         12    -1.10404554289E-003                                                     F               2         First time derivative of First time derivative of Platform vertical heave translation DOF (internal DOF index = DOF_Hv), m/s/s
         13     2.01181246666E-004                                                     F               2         First time derivative of First time derivative of Platform roll tilt rotation DOF (internal DOF index = DOF_R), rad/s/s
         14     4.39760857262E-004                                                     F               2         First time derivative of First time derivative of Platform pitch tilt rotation DOF (internal DOF index = DOF_P), rad/s/s
         15     3.58338256774E-005                                                     F               2         First time derivative of First time derivative of Platform yaw rotation DOF (internal DOF index = DOF_Y), rad/s/s
         16    -9.81659442186E-002                                                     F               2         First time derivative of First time derivative of 1st tower fore-aft bending mode DOF (internal DOF index = DOF_TFA1), m/s/s
         17    -3.69760803878E-002                                                     F               2         First time derivative of First time derivative of 1st tower side-to-side bending mode DOF (internal DOF index = DOF_TSS1), m/s/s
         18     7.98502005637E-004                                                     F               2         First time derivative of First time derivative of Variable speed generator DOF (internal DOF index = DOF_GeAz), rad/s/s

Order of inputs:
     Column   Operating Point                                                   Rotating Frame? Derivative Order Description
   ---------- ---------------                                                   --------------- ---------------- -----------
          1     2.94773876667E-001                                                     T               0         Blade 1 pitch command, rad
          2     2.94773876667E-001                                                     T               0         Blade 2 pitch command, rad
          3     2.94773876667E-001                                                     T               0         Blade 3 pitch command, rad
          4     0.00000000000E+000                                                     F               0         Yaw moment, Nm
          5     1.86691280000E+007                                                     F               0         Generator torque, Nm
          6     2.94773876667E-001                                                     F               0         Extended input: collective blade-pitch command, rad

Order of outputs:
        Row   Operating Point                                                   Rotating Frame? Derivative Order Description
   ---------- ---------------                                                   --------------- ---------------- -----------
          1     7.56126976013E+000                                                     F               0         GenSpeed, (rpm)
          2     7.56126976013E+000                                                     F               0         RotSpeed, (rpm)
          3     1.86691289062E+004                                                     F               0         RotTorq, (kN-m)
          4     2.57346801758E+003                                                     F               0         RotThrust, (kN)
          5     1.27404960938E+005                                                     F               0         TwrBsMxt, (kN-m)
          6     3.06347531250E+005                                                     F               0         TwrBsMyt, (kN-m)
          7    -6.01746923828E+003                                                     F               0         TwrBsMzt, (kN-m)
          8     3.06422998047E+003                                                     F               0         TwrBsFxt, (kN)
          9    -9.82402465820E+002                                                     F               0         TwrBsFyt, (kN)
         10    -1.80476777344E+004                                                     F               0         TwrBsFzt, (kN)
         11     6.83461809158E+000                                                     F               0         PtfmSurge, (m)
         12    -8.14025104046E-001                                                     F               0         PtfmSway, (m)
         13    -1.15373797715E-001                                                     F               0         PtfmHeave, (m)
         14     3.10429573059E+000                                                     F               0         PtfmRoll, (deg)
         15     5.45167922974E+000                                                     F               0         PtfmPitch, (deg)
         16    -5.28989493847E-001                                                     F               0         PtfmYaw, (deg)
         17     5.66144406796E-001                                                     F               0         TTDspFA, (m)
         18    -2.74445265532E-001                                                     F               0         TTDspSS, (m)
         19     8.05911980569E-003                                                     F               0         PtfmTAxt, (m/s^2)
         20    -3.14637972042E-003                                                     F               0         PtfmTAyt, (m/s^2)
         21    -1.72756917891E-004                                                     F               0         PtfmTAzt, (m/s^2)
         22     1.11130708829E-002                                                     F               0         PtfmRAxt, (deg/s^2)
         23     2.54036355764E-002                                                     F               0         PtfmRAyt, (deg/s^2)
         24     1.76033808384E-003                                                     F               0         PtfmRAzt, (deg/s^2)
         25    -2.71888859570E-002                                                     F               0         YawBrTAxp, (m/s^2)


Linearized state matrices:

A: 18 x 18
     0.00000000000E+000   0.00000000000E+000   0.00000000000E+000   0.00000000000E+000   0.00000000000E+000   0.00000000000E+000   0.00000000000E+000   0.00000000000E+000   0.00000000000E+000   1.00000000000E+000   0.00000000000E+000   0.00000000000E+000   0.00000000000E+000   0.00000000000E+000   0.00000000000E+000   0.00000000000E+000   0.00000000000E+000   0.00000000000E+000
     0.00000000000E+000   0.00000000000E+000   0.00000000000E+000   0.00000000000E+000   0.00000000000E+000   0.00000000000E+000   0.00000000000E+000   0.00000000000E+000   0.00000000000E+000   0.00000000000E+000   1.00000000000E+000   0.00000000000E+000   0.00000000000E+000   0.00000000000E+000   0.00000000000E+000   0.00000000000E+000   0.00000000000E+000   0.00000000000E+000
     0.00000000000E+000   0.00000000000E+000   0.00000000000E+000   0.00000000000E+000   0.00000000000E+000   0.00000000000E+000   0.00000000000E+000   0.00000000000E+000   0.00000000000E+000   0.00000000000E+000   0.00000000000E+000   1.00000000000E+000   0.00000000000E+000   0.00000000000E+000   0.00000000000E+000   0.00000000000E+000   0.00000000000E+000   0.00000000000E+000
     0.00000000000E+000   0.00000000000E+000   0.00000000000E+000   0.00000000000E+000   0.00000000000E+000   0.00000000000E+000   0.00000000000E+000   0.00000000000E+000   0.00000000000E+000   0.00000000000E+000   0.00000000000E+000   0.00000000000E+000   1.00000000000E+000   0.00000000000E+000   0.00000000000E+000   0.00000000000E+000   0.00000000000E+000   0.00000000000E+000
     0.00000000000E+000   0.00000000000E+000   0.00000000000E+000   0.00000000000E+000   0.00000000000E+000   0.00000000000E+000   0.00000000000E+000   0.00000000000E+000   0.00000000000E+000   0.00000000000E+000   0.00000000000E+000   0.00000000000E+000   0.00000000000E+000   1.00000000000E+000   0.00000000000E+000   0.00000000000E+000   0.00000000000E+000   0.00000000000E+000
     0.00000000000E+000   0.00000000000E+000   0.00000000000E+000   0.00000000000E+000   0.00000000000E+000   0.00000000000E+000   0.00000000000E+000   0.00000000000E+000   0.00000000000E+000   0.00000000000E+000   0.00000000000E+000   0.00000000000E+000   0.00000000000E+000   0.00000000000E+000   1.00000000000E+000   0.00000000000E+000   0.00000000000E+000   0.00000000000E+000
     0.00000000000E+000   0.00000000000E+000   0.00000000000E+000   0.00000000000E+000   0.00000000000E+000   0.00000000000E+000   0.00000000000E+000   0.00000000000E+000   0.00000000000E+000   0.00000000000E+000   0.00000000000E+000   0.00000000000E+000   0.00000000000E+000   0.00000000000E+000   0.00000000000E+000   1.00000000000E+000   0.00000000000E+000   0.00000000000E+000
     0.00000000000E+000   0.00000000000E+000   0.00000000000E+000   0.00000000000E+000   0.00000000000E+000   0.00000000000E+000   0.00000000000E+000   0.00000000000E+000   0.00000000000E+000   0.00000000000E+000   0.00000000000E+000   0.00000000000E+000   0.00000000000E+000   0.00000000000E+000   0.00000000000E+000   0.00000000000E+000   1.00000000000E+000   0.00000000000E+000
     0.00000000000E+000   0.00000000000E+000   0.00000000000E+000   0.00000000000E+000   0.00000000000E+000   0.00000000000E+000   0.00000000000E+000   0.00000000000E+000   0.00000000000E+000   0.00000000000E+000   0.00000000000E+000   0.00000000000E+000   0.00000000000E+000   0.00000000000E+000   0.00000000000E+000   0.00000000000E+000   0.00000000000E+000   1.00000000000E+000
     0.00000000000E+000   0.00000000000E+000   0.00000000000E+000   2.35599161147E-002  -3.04040485916E+000   2.14567233680E-001   7.23058763004E-001  -8.23562280880E-003  -1.01327223758E-002   0.00000000000E+000   0.00000000000E+000   0.00000000000E+000   1.49621177468E-001  -7.01262112799E-002   7.15339155367E-001   2.48515638161E-003   9.78010087220E-004   1.77195292420E-004
     0.00000000000E+000   0.00000000000E+000   0.00000000000E+000   3.47409952331E+000   1.69326222145E-003   5.00825988271E-001  -7.16560034885E-003  -8.28754897004E-001   5.77899654446E-007   0.00000000000E+000   0.00000000000E+000   0.00000000000E+000  -7.94087801745E-004   5.58732853616E-002  -4.67608422576E-003   6.58510667166E-004  -3.28448755183E-003   6.02023767893E-005
     0.00000000000E+000   0.00000000000E+000   0.00000000000E+000   6.20069633195E-002   1.13538655582E-001   1.31104918754E-003  -2.94756313437E-002  -1.60469506267E-002   4.99003315528E-004   0.00000000000E+000   0.00000000000E+000   0.00000000000E+000  -9.85287463821E-003   1.00907060805E-002  -3.18706793673E-002  -4.49516212675E-005  -1.18809868781E-004  -9.30147266496E-004
     0.00000000000E+000   0.00000000000E+000   0.00000000000E+000  -2.11136808973E-001  -6.06092521919E-004  -3.09498188948E-002   5.07449091085E-004   4.96499148030E-002  -2.23262301518E-006   0.00000000000E+000   0.00000000000E+000   0.00000000000E+000   8.58420590521E-005   7.80103223214E-004   3.70918122920E-004   1.18951303948E-005   1.95517678695E-004   6.52356849503E-008
     0.00000000000E+000   0.00000000000E+000   0.00000000000E+000   9.56562541785E-004  -1.83417621022E-001   1.50045241518E-002   4.27728106091E-002  -4.36931259455E-004  -4.53909923193E-004   0.00000000000E+000   0.00000000000E+000   0.00000000000E+000   6.69739519046E-003  -4.46529364929E-003   3.19216948817E-002   1.34899873567E-004   4.37014228657E-005   1.12410876328E-005
     0.00000000000E+000   0.00000000000E+000   0.00000000000E+000   2.91527063185E-002  -9.32679168277E-003   1.70274180922E-003   2.11716008606E-003  -2.62908777775E-003  -4.00592290565E-005   0.00000000000E+000   0.00000000000E+000   0.00000000000E+000   9.37502151984E-004   5.15671032520E-002   4.39911614073E-003   6.47199597066E-004  -9.19171139109E-006   1.38104593993E-005
     0.00000000000E+000   0.00000000000E+000   0.00000000000E+000   5.94894616511E-003   3.76697589817E+001  -2.51513147295E+000  -8.97157797495E+000  -1.12829195481E-003   1.28641583899E-001   0.00000000000E+000   0.00000000000E+000   0.00000000000E+000  -1.90177538556E+000   4.98644639570E-001  -9.04736763602E+000  -3.55921749646E-002  -1.28321165370E-002  -4.88412257464E-003
     0.00000000000E+000   0.00000000000E+000   0.00000000000E+000   4.30546786277E+001  -3.43293592844E-001   6.11133578987E+000  -3.70630644703E-003  -1.02666697480E+001  -6.25957528753E-003   0.00000000000E+000   0.00000000000E+000   0.00000000000E+000   1.10486918163E-002   9.16245692324E-001   9.51129453566E-002   1.13424447839E-002  -4.06373492305E-002  -1.23432920458E-003
     0.00000000000E+000   0.00000000000E+000   0.00000000000E+000  -3.14761704673E-001   1.35903234316E-002  -4.44772284084E-002   1.67544853246E-004   7.65611623310E-002  -1.05291497615E-004   0.00000000000E+000   0.00000000000E+000   0.00000000000E+000   5.58887969895E-005  -1.40199536479E-003  -2.29624363074E-004  -1.70739056299E-005   3.04416444920E-004   1.80586910438E-005
B: 18 x 6
     0.00000000000E+000   0.00000000000E+000   0.00000000000E+000   0.00000000000E+000   0.00000000000E+000   0.00000000000E+000
     0.00000000000E+000   0.00000000000E+000   0.00000000000E+000   0.00000000000E+000   0.00000000000E+000   0.00000000000E+000
     0.00000000000E+000   0.00000000000E+000   0.00000000000E+000   0.00000000000E+000   0.00000000000E+000   0.00000000000E+000
     0.00000000000E+000   0.00000000000E+000   0.00000000000E+000   0.00000000000E+000   0.00000000000E+000   0.00000000000E+000
     0.00000000000E+000   0.00000000000E+000   0.00000000000E+000   0.00000000000E+000   0.00000000000E+000   0.00000000000E+000
     0.00000000000E+000   0.00000000000E+000   0.00000000000E+000   0.00000000000E+000   0.00000000000E+000   0.00000000000E+000
     0.00000000000E+000   0.00000000000E+000   0.00000000000E+000   0.00000000000E+000   0.00000000000E+000   0.00000000000E+000
     0.00000000000E+000   0.00000000000E+000   0.00000000000E+000   0.00000000000E+000   0.00000000000E+000   0.00000000000E+000
     0.00000000000E+000   0.00000000000E+000   0.00000000000E+000   0.00000000000E+000   0.00000000000E+000   0.00000000000E+000
     0.00000000000E+000   0.00000000000E+000   0.00000000000E+000   0.00000000000E+000   2.37007274301E-011   0.00000000000E+000
     0.00000000000E+000   0.00000000000E+000   0.00000000000E+000   0.00000000000E+000   1.56556400526E-009   0.00000000000E+000
     0.00000000000E+000   0.00000000000E+000   0.00000000000E+000   0.00000000000E+000   4.24450661449E-011   0.00000000000E+000
     0.00000000000E+000   0.00000000000E+000   0.00000000000E+000   0.00000000000E+000  -7.41853222299E-011   0.00000000000E+000
     0.00000000000E+000   0.00000000000E+000   0.00000000000E+000   0.00000000000E+000   1.31383925462E-012   0.00000000000E+000
     0.00000000000E+000   0.00000000000E+000   0.00000000000E+000   0.00000000000E+000  -9.34859218811E-012   0.00000000000E+000
     0.00000000000E+000   0.00000000000E+000   0.00000000000E+000   0.00000000000E+000   9.57636534123E-012   0.00000000000E+000
     0.00000000000E+000   0.00000000000E+000   0.00000000000E+000   0.00000000000E+000   1.97107429962E-008   0.00000000000E+000
     0.00000000000E+000   0.00000000000E+000   0.00000000000E+000   0.00000000000E+000  -1.66391222324E-009   0.00000000000E+000
C: 25 x 18
     0.00000000000E+000   0.00000000000E+000   0.00000000000E+000   0.00000000000E+000   0.00000000000E+000   0.00000000000E+000   0.00000000000E+000   0.00000000000E+000   0.00000000000E+000   0.00000000000E+000   0.00000000000E+000   0.00000000000E+000   0.00000000000E+000   0.00000000000E+000   0.00000000000E+000   0.00000000000E+000   0.00000000000E+000   9.54930113897E+000
     0.00000000000E+000   0.00000000000E+000   0.00000000000E+000   0.00000000000E+000   0.00000000000E+000   0.00000000000E+000   0.00000000000E+000   0.00000000000E+000   0.00000000000E+000   0.00000000000E+000   0.00000000000E+000   0.00000000000E+000   0.00000000000E+000   0.00000000000E+000   0.00000000000E+000   0.00000000000E+000   0.00000000000E+000   9.54930113897E+000
     0.00000000000E+000   0.00000000000E+000   0.00000000000E+000   0.00000000000E+000   0.00000000000E+000   5.59529096807E-002   4.52876635360E-002  -2.26438317680E-002   2.79764548404E-002   0.00000000000E+000   0.00000000000E+000   0.00000000000E+000   2.79764548404E-002   5.59529096807E-002  -8.39293645211E-002  -2.26438317680E-002   0.00000000000E+000   0.00000000000E+000
     0.00000000000E+000   0.00000000000E+000   0.00000000000E+000  -6.71679710149E+001  -6.44535554840E+002   5.55227716876E+001   1.87415353250E+003   2.70027693833E+000  -4.19227175783E+001   0.00000000000E+000   0.00000000000E+000   0.00000000000E+000   6.22332740867E+002  -1.66841085497E+002   2.96432220786E+003   7.20073850222E+000   4.21741366679E+000   2.13670173843E+000
     0.00000000000E+000   0.00000000000E+000   0.00000000000E+000   1.68130212560E+005  -1.85226512207E+003   1.62979635318E+004   3.84945140056E+001   4.61243712348E+005   2.95431363114E+001   0.00000000000E+000   0.00000000000E+000   0.00000000000E+000  -3.12664859296E+002  -2.63947779895E+004  -1.57406725514E+003  -3.25799451478E+002   1.80009405023E+003  -2.01430474851E+000
     0.00000000000E+000   0.00000000000E+000   0.00000000000E+000  -1.15665854892E+003   2.03908069691E+005  -7.52096630765E+003   4.50033294692E+005   6.41273315669E+001  -3.29898355478E+003   0.00000000000E+000   0.00000000000E+000   0.00000000000E+000   4.88245089874E+004  -1.23817074774E+004   2.32701437013E+005   1.76259586482E+003   3.29694190542E+002   9.44485115411E+001
     0.00000000000E+000   0.00000000000E+000   0.00000000000E+000  -2.65826258955E+004   1.02761854979E+004   4.32979701571E+003   5.82569181811E+001   1.85657342761E+004  -1.98045323815E+002   0.00000000000E+000   0.00000000000E+000   0.00000000000E+000   6.13813910368E+003   5.00946568230E+005   2.94109615505E+004   6.19586185793E+003   6.49481704685E+001   1.28712674607E+002
     0.00000000000E+000   0.00000000000E+000   0.00000000000E+000  -2.44549185873E+001   7.67624962024E+003  -3.20589190130E+002   2.63873666454E+003   1.65583019803E+000  -7.45607492064E+001   0.00000000000E+000   0.00000000000E+000   0.00000000000E+000   1.10355574058E+003  -2.74872165864E+002   5.25946859828E+003   1.09709364916E+001   7.42717681990E+000   2.09823411303E+000
     0.00000000000E+000   0.00000000000E+000   0.00000000000E+000  -7.04938644222E+003   6.79408205798E+001  -7.13638272560E+002  -1.20578404164E+000  -2.85493784741E+003  -7.37878996415E-001   0.00000000000E+000   0.00000000000E+000   0.00000000000E+000   7.03607839235E+000   5.96631995775E+002   3.59488702057E+001   7.37339771945E+000  -1.15950571047E+001   3.84676254055E-002
     0.00000000000E+000   0.00000000000E+000   0.00000000000E+000   1.28168532560E+003   1.97759963976E+003   1.36972722898E+002   2.43941999636E+002  -7.30263574517E+001  -3.55300976473E+000   0.00000000000E+000   0.00000000000E+000   0.00000000000E+000   6.14083183746E+001   9.37211237152E+000   3.04663593212E+002   1.47184906492E+000  -1.35862990608E-001  -1.75412371849E+001
     1.00000006286E+000   0.00000000000E+000   0.00000000000E+000   0.00000000000E+000   0.00000000000E+000   0.00000000000E+000   0.00000000000E+000   0.00000000000E+000   0.00000000000E+000   0.00000000000E+000   0.00000000000E+000   0.00000000000E+000   0.00000000000E+000   0.00000000000E+000   0.00000000000E+000   0.00000000000E+000   0.00000000000E+000   0.00000000000E+000
     0.00000000000E+000   9.99999942514E-001   0.00000000000E+000   0.00000000000E+000   0.00000000000E+000   0.00000000000E+000   0.00000000000E+000   0.00000000000E+000   0.00000000000E+000   0.00000000000E+000   0.00000000000E+000   0.00000000000E+000   0.00000000000E+000   0.00000000000E+000   0.00000000000E+000   0.00000000000E+000   0.00000000000E+000   0.00000000000E+000
     0.00000000000E+000   0.00000000000E+000   1.00000006286E+000   0.00000000000E+000   0.00000000000E+000   0.00000000000E+000   0.00000000000E+000   0.00000000000E+000   0.00000000000E+000   0.00000000000E+000   0.00000000000E+000   0.00000000000E+000   0.00000000000E+000   0.00000000000E+000   0.00000000000E+000   0.00000000000E+000   0.00000000000E+000   0.00000000000E+000
     0.00000000000E+000   0.00000000000E+000   0.00000000000E+000   5.72957795131E+001   0.00000000000E+000   0.00000000000E+000   0.00000000000E+000   0.00000000000E+000   0.00000000000E+000   0.00000000000E+000   0.00000000000E+000   0.00000000000E+000   0.00000000000E+000   0.00000000000E+000   0.00000000000E+000   0.00000000000E+000   0.00000000000E+000   0.00000000000E+000
     0.00000000000E+000   0.00000000000E+000   0.00000000000E+000   0.00000000000E+000   5.72957795131E+001   0.00000000000E+000   0.00000000000E+000   0.00000000000E+000   0.00000000000E+000   0.00000000000E+000   0.00000000000E+000   0.00000000000E+000   0.00000000000E+000   0.00000000000E+000   0.00000000000E+000   0.00000000000E+000   0.00000000000E+000   0.00000000000E+000
     0.00000000000E+000   0.00000000000E+000   0.00000000000E+000   0.00000000000E+000   0.00000000000E+000   5.72957726829E+001   0.00000000000E+000   0.00000000000E+000   0.00000000000E+000   0.00000000000E+000   0.00000000000E+000   0.00000000000E+000   0.00000000000E+000   0.00000000000E+000   0.00000000000E+000   0.00000000000E+000   0.00000000000E+000   0.00000000000E+000
     0.00000000000E+000   0.00000000000E+000   0.00000000000E+000   0.00000000000E+000   0.00000000000E+000   0.00000000000E+000   1.00000006624E+000   0.00000000000E+000   0.00000000000E+000   0.00000000000E+000   0.00000000000E+000   0.00000000000E+000   0.00000000000E+000   0.00000000000E+000   0.00000000000E+000   0.00000000000E+000   0.00000000000E+000   0.00000000000E+000
     0.00000000000E+000   0.00000000000E+000   0.00000000000E+000   0.00000000000E+000   0.00000000000E+000   0.00000000000E+000   0.00000000000E+000  -9.99999893483E-001   0.00000000000E+000   0.00000000000E+000   0.00000000000E+000   0.00000000000E+000   0.00000000000E+000   0.00000000000E+000   0.00000000000E+000   0.00000000000E+000   0.00000000000E+000   0.00000000000E+000