
Linearized model: Predictions were generated on 08-Jan-2024 at 09:43:14 using OpenFAST, compiled as a 64-bit application using single precision at commit v3.5.1
 linked with  NWTC Subroutine Library; ElastoDyn; InflowWind; AeroDyn; ServoDyn; HydroDyn; MoorDyn (v2.0.0, 2023-09-18)

Description from the FAST input file: CCT-9 Campign 4 model. Input files to be run with OpenFAST 3.5.0. GitHub branch from Lu Wang (https://github.com/luwang00/openfast/tree/dev) compiled on March 7, 2023.

Simulation information:
   Simulation time:                  1006.7250 s
   Rotor Speed:                         0.7078 rad/s
   Azimuth:                             3.9452 rad
   Wind Speed:                          8.0000 m/s
   Number of continuous states:        22
   Number of discrete states:           0
   Number of constraint states:         0
   Number of inputs:                 1890
   Number of outputs:                  38
   Jacobians included in this file?    No

Order of continuous states:
   Row/Column Operating Point                     Rotating Frame? Derivative Order Description
   ---------- ---------------                     --------------- ---------------- -----------
          1    5.713E+00                                 F               2         Platform horizontal surge translation DOF (internal DOF index = DOF_Sg), m
          2   -4.776E-01                                 F               2         Platform horizontal sway translation DOF (internal DOF index = DOF_Sw), m
          3   -8.213E-02                                 F               2         Platform vertical heave translation DOF (internal DOF index = DOF_Hv), m
          4    4.391E-02                                 F               2         Platform roll tilt rotation DOF (internal DOF index = DOF_R), rad
          5    8.416E-02                                 F               2         Platform pitch tilt rotation DOF (internal DOF index = DOF_P), rad
          6    2.295E-03                                 F               2         Platform yaw rotation DOF (internal DOF index = DOF_Y), rad
          7    4.619E-01                                 F               2         1st tower fore-aft bending mode DOF (internal DOF index = DOF_TFA1), m
          8    1.713E-01                                 F               2         1st tower side-to-side bending mode DOF (internal DOF index = DOF_TSS1), m
          9    1.460E-03                                 F               2         2nd tower fore-aft bending mode DOF (internal DOF index = DOF_TFA2), m
         10    7.526E-05                                 F               2         2nd tower side-to-side bending mode DOF (internal DOF index = DOF_TSS2), m
         11    2.374E+00                                 F               2         Variable speed generator DOF (internal DOF index = DOF_GeAz), rad
         12   -1.704E-04                                 F               2         First time derivative of Platform horizontal surge translation DOF (internal DOF index = DOF_Sg), m/s
         13   -8.008E-04                                 F               2         First time derivative of Platform horizontal sway translation DOF (internal DOF index = DOF_Sw), m/s
         14   -1.947E-03                                 F               2         First time derivative of Platform vertical heave translation DOF (internal DOF index = DOF_Hv), m/s
         15    6.913E-06                                 F               2         First time derivative of Platform roll tilt rotation DOF (internal DOF index = DOF_R), rad/s
         16   -4.722E-07                                 F               2         First time derivative of Platform pitch tilt rotation DOF (internal DOF index = DOF_P), rad/s
         17    2.162E-06                                 F               2         First time derivative of Platform yaw rotation DOF (internal DOF index = DOF_Y), rad/s
         18   -2.262E-04                                 F               2         First time derivative of 1st tower fore-aft bending mode DOF (internal DOF index = DOF_TFA1), m/s
         19   -3.784E-04                                 F               2         First time derivative of 1st tower side-to-side bending mode DOF (internal DOF index = DOF_TSS1), m/s
         20    1.343E-06                                 F               2         First time derivative of 2nd tower fore-aft bending mode DOF (internal DOF index = DOF_TFA2), m/s
         21    3.920E-07                                 F               2         First time derivative of 2nd tower side-to-side bending mode DOF (internal DOF index = DOF_TSS2), m/s
         22    7.078E-01                                 F               2         First time derivative of Variable speed generator DOF (internal DOF index = DOF_GeAz), rad/s

Order of continuous state derivatives:
   Row/Column Operating Point                     Rotating Frame? Derivative Order Description
   ---------- ---------------                     --------------- ---------------- -----------
          1   -1.704E-04                                 F               2         First time derivative of Platform horizontal surge translation DOF (internal DOF index = DOF_Sg), m/s
          2   -8.008E-04                                 F               2         First time derivative of Platform horizontal sway translation DOF (internal DOF index = DOF_Sw), m/s
          3   -1.947E-03                                 F               2         First time derivative of Platform vertical heave translation DOF (internal DOF index = DOF_Hv), m/s
          4    6.913E-06                                 F               2         First time derivative of Platform roll tilt rotation DOF (internal DOF index = DOF_R), rad/s
          5   -4.722E-07                                 F               2         First time derivative of Platform pitch tilt rotation DOF (internal DOF index = DOF_P), rad/s
          6    2.162E-06                                 F               2         First time derivative of Platform yaw rotation DOF (internal DOF index = DOF_Y), rad/s
          7   -2.262E-04                                 F               2         First time derivative of 1st tower fore-aft bending mode DOF (internal DOF index = DOF_TFA1), m/s
          8   -3.784E-04                                 F               2         First time derivative of 1st tower side-to-side bending mode DOF (internal DOF index = DOF_TSS1), m/s
          9    1.343E-06                                 F               2         First time derivative of 2nd tower fore-aft bending mode DOF (internal DOF index = DOF_TFA2), m/s
         10    3.920E-07                                 F               2         First time derivative of 2nd tower side-to-side bending mode DOF (internal DOF index = DOF_TSS2), m/s
         11    7.078E-01                                 F               2         First time derivative of Variable speed generator DOF (internal DOF index = DOF_GeAz), rad/s
         12    3.006E-05                                 F               2         First time derivative of First time derivative of Platform horizontal surge translation DOF (internal DOF index = DOF_Sg), m/s/s
         13   -1.610E-04                                 F               2         First time derivative of First time derivative of Platform horizontal sway translation DOF (internal DOF index = DOF_Sw), m/s/s
         14    6.475E-04                                 F               2         First time derivative of First time derivative of Platform vertical heave translation DOF (internal DOF index = DOF_Hv), m/s/s
         15    7.801E-06                                 F               2         First time derivative of First time derivative of Platform roll tilt rotation DOF (internal DOF index = DOF_R), rad/s/s
         16    1.821E-06                                 F               2         First time derivative of First time derivative of Platform pitch tilt rotation DOF (internal DOF index = DOF_P), rad/s/s
         17    4.248E-07                                 F               2         First time derivative of First time derivative of Platform yaw rotation DOF (internal DOF index = DOF_Y), rad/s/s
         18   -1.022E-03                                 F               2         First time derivative of First time derivative of 1st tower fore-aft bending mode DOF (internal DOF index = DOF_TFA1), m/s/s
         19   -1.712E-04                                 F               2         First time derivative of First time derivative of 1st tower side-to-side bending mode DOF (internal DOF index = DOF_TSS1), m/s/s
         20    3.608E-06                                 F               2         First time derivative of First time derivative of 2nd tower fore-aft bending mode DOF (internal DOF index = DOF_TFA2), m/s/s
         21   -3.928E-07                                 F               2         First time derivative of First time derivative of 2nd tower side-to-side bending mode DOF (internal DOF index = DOF_TSS2), m/s/s
         22    2.914E-05                                 F               2         First time derivative of First time derivative of Variable speed generator DOF (internal DOF index = DOF_GeAz), rad/s/s

Order of inputs:
     Column   Operating Point                     Rotating Frame? Derivative Order Description
   ---------- ---------------                     --------------- ---------------- -----------
          1    3.948E+01                                 F               0         Blade 1 X force, node 1, N
          2   -2.108E+01                                 F               0         Blade 1 Y force, node 1, N
          3   -3.260E+01                                 F               0         Blade 1 Z force, node 1, N
          4    1.849E+02                                 F               0         Blade 1 X force, node 2, N
          5   -4.129E+01                                 F               0         Blade 1 Y force, node 2, N
          6   -8.611E+01                                 F               0         Blade 1 Z force, node 2, N
          7    2.612E+02                                 F               0         Blade 1 X force, node 3, N
          8   -1.487E+01                                 F               0         Blade 1 Y force, node 3, N
          9   -7.128E+01                                 F               0         Blade 1 Z force, node 3, N
         10    3.572E+02                                 F               0         Blade 1 X force, node 4, N
         11    6.849E+00                                 F               0         Blade 1 Y force, node 4, N
         12   -6.597E+01                                 F               0         Blade 1 Z force, node 4, N
         13    4.533E+02                                 F               0         Blade 1 X force, node 5, N
         14    2.857E+01                                 F               0         Blade 1 Y force, node 5, N
         15   -6.066E+01                                 F               0         Blade 1 Z force, node 5, N
         16    5.493E+02                                 F               0         Blade 1 X force, node 6, N
         17    5.029E+01                                 F               0         Blade 1 Y force, node 6, N
         18   -5.536E+01                                 F               0         Blade 1 Z force, node 6, N
         19    6.453E+02                                 F               0         Blade 1 X force, node 7, N
         20    7.201E+01                                 F               0         Blade 1 Y force, node 7, N
         21   -5.005E+01                                 F               0         Blade 1 Z force, node 7, N
         22    7.414E+02                                 F               0         Blade 1 X force, node 8, N
         23    9.373E+01                                 F               0         Blade 1 Y force, node 8, N
         24   -4.474E+01                                 F               0         Blade 1 Z force, node 8, N
         25    8.374E+02                                 F               0         Blade 1 X force, node 9, N
         26    1.155E+02                                 F               0         Blade 1 Y force, node 9, N
         27   -3.944E+01                                 F               0         Blade 1 Z force, node 9, N
         28    9.334E+02                                 F               0         Blade 1 X force, node 10, N
         29    1.372E+02                                 F               0         Blade 1 Y force, node 10, N
         30   -3.413E+01                                 F               0         Blade 1 Z force, node 10, N
         31    1.029E+03                                 F               0         Blade 1 X force, node 11, N
         32    1.589E+02                                 F               0         Blade 1 Y force, node 11, N
         33   -2.883E+01                                 F               0         Blade 1 Z force, node 11, N
         34    1.126E+03                                 F               0         Blade 1 X force, node 12, N
         35    1.806E+02                                 F               0         Blade 1 Y force, node 12, N
         36   -2.352E+01                                 F               0         Blade 1 Z force, node 12, N
         37    1.222E+03                                 F               0         Blade 1 X force, node 13, N
         38    2.023E+02                                 F               0         Blade 1 Y force, node 13, N
         39   -1.821E+01                                 F               0         Blade 1 Z force, node 13, N
         40    1.318E+03                                 F               0         Blade 1 X force, node 14, N
         41    2.241E+02                                 F               0         Blade 1 Y force, node 14, N
         42   -1.291E+01                                 F               0         Blade 1 Z force, node 14, N
         43    1.414E+03                                 F               0         Blade 1 X force, node 15, N
         44    2.458E+02                                 F               0         Blade 1 Y force, node 15, N
         45   -7.601E+00                                 F               0         Blade 1 Z force, node 15, N
         46    1.510E+03                                 F               0         Blade 1 X force, node 16, N
         47    2.675E+02                                 F               0         Blade 1 Y force, node 16, N
         48   -2.295E+00                                 F               0         Blade 1 Z force, node 16, N
         49    1.862E+03                                 F               0         Blade 1 X force, node 17, N
         50    3.341E+02                                 F               0         Blade 1 Y force, node 17, N
         51    1.983E+00                                 F               0         Blade 1 Z force, node 17, N
         52    1.424E+03                                 F               0         Blade 1 X force, node 18, N
         53    2.471E+02                                 F               0         Blade 1 Y force, node 18, N
         54   -8.368E+00                                 F               0         Blade 1 Z force, node 18, N
         55    1.751E+03                                 F               0         Blade 1 X force, node 19, N
         56    2.897E+02                                 F               0         Blade 1 Y force, node 19, N
         57   -2.646E+01                                 F               0         Blade 1 Z force, node 19, N
         58    1.495E+03                                 F               0         Blade 1 X force, node 20, N
         59    2.363E+02                                 F               0         Blade 1 Y force, node 20, N
         60   -3.531E+01                                 F               0         Blade 1 Z force, node 20, N
         61    2.211E+03                                 F               0         Blade 1 X force, node 21, N
         62    3.316E+02                                 F               0         Blade 1 Y force, node 21, N
         63   -7.307E+01                                 F               0         Blade 1 Z force, node 21, N
         64    1.954E+03                                 F               0         Blade 1 X force, node 22, N
         65    2.780E+02                                 F               0         Blade 1 Y force, node 22, N
         66   -8.203E+01                                 F               0         Blade 1 Z force, node 22, N
         67    2.010E+03                                 F               0         Blade 1 X force, node 23, N
         68    2.725E+02                                 F               0         Blade 1 Y force, node 23, N
         69   -9.997E+01                                 F               0         Blade 1 Z force, node 23, N
         70    2.101E+03                                 F               0         Blade 1 X force, node 24, N
         71    2.716E+02                                 F               0         Blade 1 Y force, node 24, N
         72   -1.199E+02                                 F               0         Blade 1 Z force, node 24, N
         73    2.156E+03                                 F               0         Blade 1 X force, node 25, N
         74    2.659E+02                                 F               0         Blade 1 Y force, node 25, N
         75   -1.378E+02                                 F               0         Blade 1 Z force, node 25, N
         76    2.222E+03                                 F               0         Blade 1 X force, node 26, N
         77    2.618E+02                                 F               0         Blade 1 Y force, node 26, N
         78   -1.564E+02                                 F               0         Blade 1 Z force, node 26, N
         79    2.666E+03                                 F               0         Blade 1 X force, node 27, N
         80    2.992E+02                                 F               0         Blade 1 Y force, node 27, N
         81   -2.048E+02                                 F               0         Blade 1 Z force, node 27, N
         82    1.979E+03                                 F               0         Blade 1 X force, node 28, N
         83    2.119E+02                                 F               0         Blade 1 Y force, node 28, N
         84   -1.638E+02                                 F               0         Blade 1 Z force, node 28, N
         85    2.423E+03                                 F               0         Blade 1 X force, node 29, N
         86    2.493E+02                                 F               0         Blade 1 Y force, node 29, N
         87   -2.122E+02                                 F               0         Blade 1 Z force, node 29, N
         88    2.063E+03                                 F               0         Blade 1 X force, node 30, N
         89    2.042E+02                                 F               0         Blade 1 Y force, node 30, N
         90   -1.901E+02                                 F               0         Blade 1 Z force, node 30, N
         91    2.983E+03                                 F               0         Blade 1 X force, node 31, N
         92    2.821E+02                                 F               0         Blade 1 Y force, node 31, N
         93   -2.902E+02                                 F               0         Blade 1 Z force, node 31, N
         94    2.623E+03                                 F               0         Blade 1 X force, node 32, N
         95    2.369E+02                                 F               0         Blade 1 Y force, node 32, N
         96   -2.680E+02                                 F               0         Blade 1 Z force, node 32, N
         97    2.689E+03                                 F               0         Blade 1 X force, node 33, N
         98    2.327E+02                                 F               0         Blade 1 Y force, node 33, N
         99   -2.866E+02                                 F               0         Blade 1 Z force, node 33, N
        100    2.755E+03                                 F               0         Blade 1 X force, node 34, N
        101    2.285E+02                                 F               0         Blade 1 Y force, node 34, N
        102   -3.052E+02                                 F               0         Blade 1 Z force, node 34, N
        103    2.822E+03                                 F               0         Blade 1 X force, node 35, N
        104    2.244E+02                                 F               0         Blade 1 Y force, node 35, N
        105   -3.238E+02                                 F               0         Blade 1 Z force, node 35, N
        106    2.888E+03                                 F               0         Blade 1 X force, node 36, N
        107    2.202E+02                                 F               0         Blade 1 Y force, node 36, N
        108   -3.424E+02                                 F               0         Blade 1 Z force, node 36, N
        109    3.457E+03                                 F               0         Blade 1 X force, node 37, N
        110    2.521E+02                                 F               0         Blade 1 Y force, node 37, N
        111   -4.231E+02                                 F               0         Blade 1 Z force, node 37, N
        112    2.519E+03                                 F               0         Blade 1 X force, node 38, N
        113    1.759E+02                                 F               0         Blade 1 Y force, node 38, N
        114   -3.174E+02                                 F               0         Blade 1 Z force, node 38, N
        115    3.089E+03                                 F               0         Blade 1 X force, node 39, N
        116    2.079E+02                                 F               0         Blade 1 Y force, node 39, N
        117   -3.982E+02                                 F               0         Blade 1 Z force, node 39, N
        118    2.635E+03                                 F               0         Blade 1 X force, node 40, N
        119    1.709E+02                                 F               0         Blade 1 Y force, node 40, N
        120   -3.471E+02                                 F               0         Blade 1 Z force, node 40, N
        121    3.744E+03                                 F               0         Blade 1 X force, node 41, N
        122    2.326E+02                                 F               0         Blade 1 Y force, node 41, N
        123   -5.051E+02                                 F               0         Blade 1 Z force, node 41, N
        124    3.290E+03                                 F               0         Blade 1 X force, node 42, N
        125    1.956E+02                                 F               0         Blade 1 Y force, node 42, N
        126   -4.539E+02                                 F               0         Blade 1 Z force, node 42, N
        127    3.356E+03                                 F               0         Blade 1 X force, node 43, N
        128    1.914E+02                                 F               0         Blade 1 Y force, node 43, N
        129   -4.724E+02                                 F               0         Blade 1 Z force, node 43, N
        130    3.440E+03                                 F               0         Blade 1 X force, node 44, N
        131    1.882E+02                                 F               0         Blade 1 Y force, node 44, N
        132   -4.936E+02                                 F               0         Blade 1 Z force, node 44, N
        133    3.470E+03                                 F               0         Blade 1 X force, node 45, N
        134    1.822E+02                                 F               0         Blade 1 Y force, node 45, N
        135   -5.069E+02                                 F               0         Blade 1 Z force, node 45, N
        136    3.555E+03                                 F               0         Blade 1 X force, node 46, N
        137    1.790E+02                                 F               0         Blade 1 Y force, node 46, N
        138   -5.280E+02                                 F               0         Blade 1 Z force, node 46, N
        139    4.257E+03                                 F               0         Blade 1 X force, node 47, N
        140    2.050E+02                                 F               0         Blade 1 Y force, node 47, N
        141   -6.431E+02                                 F               0         Blade 1 Z force, node 47, N
        142    3.052E+03                                 F               0         Blade 1 X force, node 48, N
        143    1.407E+02                                 F               0         Blade 1 Y force, node 48, N
        144   -4.685E+02                                 F               0         Blade 1 Z force, node 48, N
        145    3.754E+03                                 F               0         Blade 1 X force, node 49, N
        146    1.666E+02                                 F               0         Blade 1 Y force, node 49, N
        147   -5.835E+02                                 F               0         Blade 1 Z force, node 49, N
        148    3.212E+03                                 F               0         Blade 1 X force, node 50, N
        149    1.373E+02                                 F               0         Blade 1 Y force, node 50, N
        150   -5.056E+02                                 F               0         Blade 1 Z force, node 50, N
        151    4.494E+03                                 F               0         Blade 1 X force, node 51, N
        152    1.836E+02                                 F               0         Blade 1 Y force, node 51, N
        153   -7.170E+02                                 F               0         Blade 1 Z force, node 51, N
        154    3.954E+03                                 F               0         Blade 1 X force, node 52, N
        155    1.544E+02                                 F               0         Blade 1 Y force, node 52, N
        156   -6.392E+02                                 F               0         Blade 1 Z force, node 52, N
        157    4.021E+03                                 F               0         Blade 1 X force, node 53, N
        158    1.504E+02                                 F               0         Blade 1 Y force, node 53, N
        159   -6.578E+02                                 F               0         Blade 1 Z force, node 53, N
        160    4.134E+03                                 F               0         Blade 1 X force, node 54, N
        161    1.479E+02                                 F               0         Blade 1 Y force, node 54, N
        162   -6.838E+02                                 F               0         Blade 1 Z force, node 54, N
        163    4.111E+03                                 F               0         Blade 1 X force, node 55, N
        164    1.407E+02                                 F               0         Blade 1 Y force, node 55, N
        165   -6.875E+02                                 F               0         Blade 1 Z force, node 55, N
        166    4.223E+03                                 F               0         Blade 1 X force, node 56, N
        167    1.382E+02                                 F               0         Blade 1 Y force, node 56, N
        168   -7.135E+02                                 F               0         Blade 1 Z force, node 56, N
        169    5.066E+03                                 F               0         Blade 1 X force, node 57, N
        170    1.580E+02                                 F               0         Blade 1 Y force, node 57, N
        171   -8.651E+02                                 F               0         Blade 1 Z force, node 57, N
        172    3.580E+03                                 F               0         Blade 1 X force, node 58, N
        173    1.063E+02                                 F               0         Blade 1 Y force, node 58, N
        174   -6.175E+02                                 F               0         Blade 1 Z force, node 58, N
        175    4.424E+03                                 F               0         Blade 1 X force, node 59, N
        176    1.261E+02                                 F               0         Blade 1 Y force, node 59, N
        177   -7.692E+02                                 F               0         Blade 1 Z force, node 59, N
        178    3.804E+03                                 F               0         Blade 1 X force, node 60, N
        179    1.039E+02                                 F               0         Blade 1 Y force, node 60, N
        180   -6.666E+02                                 F               0         Blade 1 Z force, node 60, N
        181    5.246E+03                                 F               0         Blade 1 X force, node 61, N
        182    1.362E+02                                 F               0         Blade 1 Y force, node 61, N
        183   -9.275E+02                                 F               0         Blade 1 Z force, node 61, N
        184    4.624E+03                                 F               0         Blade 1 X force, node 62, N