
Linearized model: Predictions were generated on 20-Feb-2024 at 08:38:00 using OpenFAST, compiled as a 64-bit application using single precision at commit v3.5.1
 linked with  NWTC Subroutine Library; ElastoDyn; InflowWind; AeroDyn; ServoDyn; HydroDyn; MAP++ (<1.20.10>, <Oct-20-2023>)

Description from the FAST input file: CCT-9 Campign 4 model. Input files to be run with OpenFAST 3.5.0. GitHub branch from Lu Wang (https://github.com/luwang00/openfast/tree/dev) compiled on March 7, 2023.

Simulation information:
   Simulation time:                   892.8250 s
   Rotor Speed:                         0.7921 rad/s
   Azimuth:                             2.6327 rad
   Wind Speed:                         24.0000 m/s
   Number of continuous states:        18
   Number of discrete states:           0
   Number of constraint states:         0
   Number of inputs:                    6
   Number of outputs:                  25
   Jacobians included in this file?    No

Order of continuous states:
   Row/Column Operating Point                                                   Rotating Frame? Derivative Order Description
   ---------- ---------------                                                   --------------- ---------------- -----------
          1     6.83454179764E+000                                                     F               2         Platform horizontal surge translation DOF (internal DOF index = DOF_Sg), m
          2    -8.17195713520E-001                                                     F               2         Platform horizontal sway translation DOF (internal DOF index = DOF_Sw), m
          3    -1.24725125730E-001                                                     F               2         Platform vertical heave translation DOF (internal DOF index = DOF_Hv), m
          4     5.41227608919E-002                                                     F               2         Platform roll tilt rotation DOF (internal DOF index = DOF_R), rad
          5     9.51345339417E-002                                                     F               2         Platform pitch tilt rotation DOF (internal DOF index = DOF_P), rad
          6    -9.23550035805E-003                                                     F               2         Platform yaw rotation DOF (internal DOF index = DOF_Y), rad
          7     5.67807197571E-001                                                     F               2         1st tower fore-aft bending mode DOF (internal DOF index = DOF_TFA1), m
          8     2.66562759876E-001                                                     F               2         1st tower side-to-side bending mode DOF (internal DOF index = DOF_TSS1), m
          9     1.06186974049E+000                                                     F               2         Variable speed generator DOF (internal DOF index = DOF_GeAz), rad
         10     1.42508908175E-003                                                     F               2         First time derivative of Platform horizontal surge translation DOF (internal DOF index = DOF_Sg), m/s
         11    -8.17326945253E-004                                                     F               2         First time derivative of Platform horizontal sway translation DOF (internal DOF index = DOF_Sw), m/s
         12     4.08790446818E-003                                                     F               2         First time derivative of Platform vertical heave translation DOF (internal DOF index = DOF_Hv), m/s
         13     1.41409123898E-004                                                     F               2         First time derivative of Platform roll tilt rotation DOF (internal DOF index = DOF_R), rad/s
         14     1.13867143227E-004                                                     F               2         First time derivative of Platform pitch tilt rotation DOF (internal DOF index = DOF_P), rad/s
         15     5.98971064392E-006                                                     F               2         First time derivative of Platform yaw rotation DOF (internal DOF index = DOF_Y), rad/s
         16    -2.43200603873E-002                                                     F               2         First time derivative of 1st tower fore-aft bending mode DOF (internal DOF index = DOF_TFA1), m/s
         17    -2.11058650166E-002                                                     F               2         First time derivative of 1st tower side-to-side bending mode DOF (internal DOF index = DOF_TSS1), m/s
         18     7.92075157166E-001                                                     F               2         First time derivative of Variable speed generator DOF (internal DOF index = DOF_GeAz), rad/s

Order of continuous state derivatives:
   Row/Column Operating Point                                                   Rotating Frame? Derivative Order Description
   ---------- ---------------                                                   --------------- ---------------- -----------
          1     1.42508908175E-003                                                     F               2         First time derivative of Platform horizontal surge translation DOF (internal DOF index = DOF_Sg), m/s
          2    -8.17326945253E-004                                                     F               2         First time derivative of Platform horizontal sway translation DOF (internal DOF index = DOF_Sw), m/s
          3     4.08790446818E-003                                                     F               2         First time derivative of Platform vertical heave translation DOF (internal DOF index = DOF_Hv), m/s
          4     1.41409123898E-004                                                     F               2         First time derivative of Platform roll tilt rotation DOF (internal DOF index = DOF_R), rad/s
          5     1.13867143227E-004                                                     F               2         First time derivative of Platform pitch tilt rotation DOF (internal DOF index = DOF_P), rad/s
          6     5.98971064392E-006                                                     F               2         First time derivative of Platform yaw rotation DOF (internal DOF index = DOF_Y), rad/s
          7    -2.43200603873E-002                                                     F               2         First time derivative of 1st tower fore-aft bending mode DOF (internal DOF index = DOF_TFA1), m/s
          8    -2.11058650166E-002                                                     F               2         First time derivative of 1st tower side-to-side bending mode DOF (internal DOF index = DOF_TSS1), m/s
          9     7.92075157166E-001                                                     F               2         First time derivative of Variable speed generator DOF (internal DOF index = DOF_GeAz), rad/s
         10     9.03766695410E-003                                                     F               2         First time derivative of First time derivative of Platform horizontal surge translation DOF (internal DOF index = DOF_Sg), m/s/s
         11     3.36972763762E-004                                                     F               2         First time derivative of First time derivative of Platform horizontal sway translation DOF (internal DOF index = DOF_Sw), m/s/s
         12    -2.12453305721E-004                                                     F               2         First time derivative of First time derivative of Platform vertical heave translation DOF (internal DOF index = DOF_Hv), m/s/s
         13     5.80307687414E-006                                                     F               2         First time derivative of First time derivative of Platform roll tilt rotation DOF (internal DOF index = DOF_R), rad/s/s
         14     4.99195128214E-004                                                     F               2         First time derivative of First time derivative of Platform pitch tilt rotation DOF (internal DOF index = DOF_P), rad/s/s
         15     4.47191669082E-005                                                     F               2         First time derivative of First time derivative of Platform yaw rotation DOF (internal DOF index = DOF_Y), rad/s/s
         16    -1.13359734416E-001                                                     F               2         First time derivative of First time derivative of 1st tower fore-aft bending mode DOF (internal DOF index = DOF_TFA1), m/s/s
         17     9.04481450561E-004                                                     F               2         First time derivative of First time derivative of 1st tower side-to-side bending mode DOF (internal DOF index = DOF_TSS1), m/s/s
         18     8.37503641378E-004                                                     F               2         First time derivative of First time derivative of Variable speed generator DOF (internal DOF index = DOF_GeAz), rad/s/s

Order of inputs:
     Column   Operating Point                                                   Rotating Frame? Derivative Order Description
   ---------- ---------------                                                   --------------- ---------------- -----------
          1     2.94772028923E-001                                                     T               0         Blade 1 pitch command, rad
          2     2.94772028923E-001                                                     T               0         Blade 2 pitch command, rad
          3     2.94772028923E-001                                                     T               0         Blade 3 pitch command, rad
          4     0.00000000000E+000                                                     F               0         Yaw moment, Nm
          5     1.86691280000E+007                                                     F               0         Generator torque, Nm
          6     2.94772028923E-001                                                     F               0         Extended input: collective blade-pitch command, rad

Order of outputs:
        Row   Operating Point                                                   Rotating Frame? Derivative Order Description
   ---------- ---------------                                                   --------------- ---------------- -----------
          1     7.56376028061E+000                                                     F               0         GenSpeed, (rpm)
          2     7.56376028061E+000                                                     F               0         RotSpeed, (rpm)
          3     1.86691308594E+004                                                     F               0         RotTorq, (kN-m)
          4     2.58196142578E+003                                                     F               0         RotThrust, (kN)
          5     1.23707445312E+005                                                     F               0         TwrBsMxt, (kN-m)
          6     3.07344750000E+005                                                     F               0         TwrBsMyt, (kN-m)
          7    -6.12639062500E+003                                                     F               0         TwrBsMzt, (kN-m)
          8     3.07612304688E+003                                                     F               0         TwrBsFxt, (kN)
          9    -9.57318542480E+002                                                     F               0         TwrBsFyt, (kN)
         10    -1.80474824219E+004                                                     F               0         TwrBsFzt, (kN)
         11     6.83454179764E+000                                                     F               0         PtfmSurge, (m)
         12    -8.17195713520E-001                                                     F               0         PtfmSway, (m)
         13    -1.24725125730E-001                                                     F               0         PtfmHeave, (m)
         14     3.10100579262E+000                                                     F               0         PtfmRoll, (deg)
         15     5.45080709457E+000                                                     F               0         PtfmPitch, (deg)
         16    -5.29155194759E-001                                                     F               0         PtfmYaw, (deg)
         17     5.67807197571E-001                                                     F               0         TTDspFA, (m)
         18    -2.66562759876E-001                                                     F               0         TTDspSS, (m)
         19     9.01466328651E-003                                                     F               0         PtfmTAxt, (m/s^2)
         20     4.31159220170E-004                                                     F               0         PtfmTAyt, (m/s^2)
         21     6.22947700322E-004                                                     F               0         PtfmTAzt, (m/s^2)
         22    -1.01543933852E-004                                                     F               0         PtfmRAxt, (deg/s^2)
         23     2.86996774375E-002                                                     F               0         PtfmRAyt, (deg/s^2)
         24     1.02716486435E-003                                                     F               0         PtfmRAzt, (deg/s^2)
         25    -3.32741662860E-002                                                     F               0         YawBrTAxp, (m/s^2)


Linearized state matrices:

A: 18 x 18
     0.00000000000E+000   0.00000000000E+000   0.00000000000E+000   0.00000000000E+000   0.00000000000E+000   0.00000000000E+000   0.00000000000E+000   0.00000000000E+000   0.00000000000E+000   1.00000000000E+000   0.00000000000E+000   0.00000000000E+000   0.00000000000E+000   0.00000000000E+000   0.00000000000E+000   0.00000000000E+000   0.00000000000E+000   0.00000000000E+000
     0.00000000000E+000   0.00000000000E+000   0.00000000000E+000   0.00000000000E+000   0.00000000000E+000   0.00000000000E+000   0.00000000000E+000   0.00000000000E+000   0.00000000000E+000   0.00000000000E+000   1.00000000000E+000   0.00000000000E+000   0.00000000000E+000   0.00000000000E+000   0.00000000000E+000   0.00000000000E+000   0.00000000000E+000   0.00000000000E+000
     0.00000000000E+000   0.00000000000E+000   0.00000000000E+000   0.00000000000E+000   0.00000000000E+000   0.00000000000E+000   0.00000000000E+000   0.00000000000E+000   0.00000000000E+000   0.00000000000E+000   0.00000000000E+000   1.00000000000E+000   0.00000000000E+000   0.00000000000E+000   0.00000000000E+000   0.00000000000E+000   0.00000000000E+000   0.00000000000E+000
     0.00000000000E+000   0.00000000000E+000   0.00000000000E+000   0.00000000000E+000   0.00000000000E+000   0.00000000000E+000   0.00000000000E+000   0.00000000000E+000   0.00000000000E+000   0.00000000000E+000   0.00000000000E+000   0.00000000000E+000   1.00000000000E+000   0.00000000000E+000   0.00000000000E+000   0.00000000000E+000   0.00000000000E+000   0.00000000000E+000
     0.00000000000E+000   0.00000000000E+000   0.00000000000E+000   0.00000000000E+000   0.00000000000E+000   0.00000000000E+000   0.00000000000E+000   0.00000000000E+000   0.00000000000E+000   0.00000000000E+000   0.00000000000E+000   0.00000000000E+000   0.00000000000E+000   1.00000000000E+000   0.00000000000E+000   0.00000000000E+000   0.00000000000E+000   0.00000000000E+000
     0.00000000000E+000   0.00000000000E+000   0.00000000000E+000   0.00000000000E+000   0.00000000000E+000   0.00000000000E+000   0.00000000000E+000   0.00000000000E+000   0.00000000000E+000   0.00000000000E+000   0.00000000000E+000   0.00000000000E+000   0.00000000000E+000   0.00000000000E+000   1.00000000000E+000   0.00000000000E+000   0.00000000000E+000   0.00000000000E+000
     0.00000000000E+000   0.00000000000E+000   0.00000000000E+000   0.00000000000E+000   0.00000000000E+000   0.00000000000E+000   0.00000000000E+000   0.00000000000E+000   0.00000000000E+000   0.00000000000E+000   0.00000000000E+000   0.00000000000E+000   0.00000000000E+000   0.00000000000E+000   0.00000000000E+000   1.00000000000E+000   0.00000000000E+000   0.00000000000E+000
     0.00000000000E+000   0.00000000000E+000   0.00000000000E+000   0.00000000000E+000   0.00000000000E+000   0.00000000000E+000   0.00000000000E+000   0.00000000000E+000   0.00000000000E+000   0.00000000000E+000   0.00000000000E+000   0.00000000000E+000   0.00000000000E+000   0.00000000000E+000   0.00000000000E+000   0.00000000000E+000   1.00000000000E+000   0.00000000000E+000
     0.00000000000E+000   0.00000000000E+000   0.00000000000E+000   0.00000000000E+000   0.00000000000E+000   0.00000000000E+000   0.00000000000E+000   0.00000000000E+000   0.00000000000E+000   0.00000000000E+000   0.00000000000E+000   0.00000000000E+000   0.00000000000E+000   0.00000000000E+000   0.00000000000E+000   0.00000000000E+000   0.00000000000E+000   1.00000000000E+000
     0.00000000000E+000   0.00000000000E+000   0.00000000000E+000   2.35813308750E-002  -3.03854342865E+000   2.07630546313E-001   7.23046040919E-001  -8.24127492521E-003  -9.52059685390E-003   0.00000000000E+000   0.00000000000E+000   0.00000000000E+000   1.49537087938E-001  -7.32733350916E-002   7.15404057922E-001   2.44975499160E-003   9.74165533102E-004  -9.70699769837E-006
     0.00000000000E+000   0.00000000000E+000   0.00000000000E+000   3.47446042364E+000   1.60330351647E-003   5.03211484541E-001  -7.15159704344E-003  -8.28757955640E-001   3.01997657614E-005   0.00000000000E+000   0.00000000000E+000   0.00000000000E+000  -5.01524254393E-004   5.64057819668E-002  -2.73457179806E-003   6.63155551788E-004  -3.28220832621E-003   1.74764854080E-004
     0.00000000000E+000   0.00000000000E+000   0.00000000000E+000   6.43593086439E-002   1.12188880010E-001   1.64595707701E-003  -2.94814817677E-002  -1.59674586103E-002   5.79330075752E-005   0.00000000000E+000   0.00000000000E+000   0.00000000000E+000  -1.02144876926E-002   1.55758970835E-003  -3.20551110428E-002  -8.72477042098E-005  -1.17497234075E-004   7.01918270228E-005
     0.00000000000E+000   0.00000000000E+000   0.00000000000E+000  -2.11154317549E-001  -5.77341444721E-004  -3.10650275306E-002   5.07622376070E-004   4.96500107635E-002  -6.81295945881E-006   0.00000000000E+000   0.00000000000E+000   0.00000000000E+000   7.87302506010E-005   7.73228576971E-004   4.44221686446E-004   1.17958256850E-005   1.95394150228E-004  -8.00054645835E-006
     0.00000000000E+000   0.00000000000E+000   0.00000000000E+000   9.51146455001E-004  -1.83347462047E-001   1.46007602280E-002   4.27720354814E-002  -4.37462883630E-004  -4.23229633787E-004   0.00000000000E+000   0.00000000000E+000   0.00000000000E+000   6.68316776097E-003  -4.58143091052E-003   3.19109436516E-002   1.33526438080E-004   4.34668669726E-005  -6.94272291606E-007
     0.00000000000E+000   0.00000000000E+000   0.00000000000E+000   2.92954751257E-002  -8.89178595921E-003   1.86454861774E-003   2.12812572176E-003  -2.62800494312E-003  -1.02895085272E-004   0.00000000000E+000   0.00000000000E+000   0.00000000000E+000   8.95918922369E-004   5.16152857610E-002   4.20232016355E-003   6.47773137924E-004  -9.28443440643E-006   9.46073147745E-007
     0.00000000000E+000   0.00000000000E+000   0.00000000000E+000   6.16074825223E-003   3.76459162719E+001  -2.46175903969E+000  -8.97088823338E+000  -9.31235054745E-004   1.20248838999E-001   0.00000000000E+000   0.00000000000E+000   0.00000000000E+000  -1.89821625439E+000   5.47683425690E-001  -9.04236605427E+000  -3.49806651648E-002  -1.27883211833E-002   2.98039978880E-004
     0.00000000000E+000   0.00000000000E+000   0.00000000000E+000   4.30650117749E+001  -3.43878577715E-001   6.12511434796E+000  -3.48523714469E-003  -1.02666044427E+001  -1.02897053385E-003   0.00000000000E+000   0.00000000000E+000   0.00000000000E+000   2.34051388856E-002   9.22878497807E-001   8.82939762963E-003   1.13845276148E-002  -4.04078387696E-002   1.50258174217E-002
     0.00000000000E+000   0.00000000000E+000   0.00000000000E+000  -3.15082534075E-001   1.32198826100E-002  -4.56791493763E-002   1.40596089307E-004   7.66202580090E-002  -8.89116149367E-007   0.00000000000E+000   0.00000000000E+000   0.00000000000E+000  -2.36318770999E-004  -1.43432711099E-003   4.95515985159E-005  -1.75928178927E-005   3.01559558726E-004  -1.76121886954E-004
B: 18 x 6
     0.00000000000E+000   0.00000000000E+000   0.00000000000E+000   0.00000000000E+000   0.00000000000E+000   0.00000000000E+000
     0.00000000000E+000   0.00000000000E+000   0.00000000000E+000   0.00000000000E+000   0.00000000000E+000   0.00000000000E+000
     0.00000000000E+000   0.00000000000E+000   0.00000000000E+000   0.00000000000E+000   0.00000000000E+000   0.00000000000E+000
     0.00000000000E+000   0.00000000000E+000   0.00000000000E+000   0.00000000000E+000   0.00000000000E+000   0.00000000000E+000
     0.00000000000E+000   0.00000000000E+000   0.00000000000E+000   0.00000000000E+000   0.00000000000E+000   0.00000000000E+000
     0.00000000000E+000   0.00000000000E+000   0.00000000000E+000   0.00000000000E+000   0.00000000000E+000   0.00000000000E+000
     0.00000000000E+000   0.00000000000E+000   0.00000000000E+000   0.00000000000E+000   0.00000000000E+000   0.00000000000E+000
     0.00000000000E+000   0.00000000000E+000   0.00000000000E+000   0.00000000000E+000   0.00000000000E+000   0.00000000000E+000
     0.00000000000E+000   0.00000000000E+000   0.00000000000E+000   0.00000000000E+000   0.00000000000E+000   0.00000000000E+000
     0.00000000000E+000   0.00000000000E+000   0.00000000000E+000   0.00000000000E+000   2.39084410726E-011   0.00000000000E+000
     0.00000000000E+000   0.00000000000E+000   0.00000000000E+000   0.00000000000E+000   1.56582558029E-009   0.00000000000E+000
     0.00000000000E+000   0.00000000000E+000   0.00000000000E+000   0.00000000000E+000   4.13061571699E-011   0.00000000000E+000
     0.00000000000E+000   0.00000000000E+000   0.00000000000E+000   0.00000000000E+000  -7.41939364008E-011   0.00000000000E+000
     0.00000000000E+000   0.00000000000E+000   0.00000000000E+000   0.00000000000E+000   1.32641054681E-012   0.00000000000E+000
     0.00000000000E+000   0.00000000000E+000   0.00000000000E+000   0.00000000000E+000  -9.33627685186E-012   0.00000000000E+000
     0.00000000000E+000   0.00000000000E+000   0.00000000000E+000   0.00000000000E+000   3.98087340784E-012   0.00000000000E+000
     0.00000000000E+000   0.00000000000E+000   0.00000000000E+000   0.00000000000E+000   1.97260470271E-008   0.00000000000E+000
     0.00000000000E+000   0.00000000000E+000   0.00000000000E+000   0.00000000000E+000  -1.66426486381E-009   0.00000000000E+000
C: 25 x 18
     0.00000000000E+000   0.00000000000E+000   0.00000000000E+000   0.00000000000E+000   0.00000000000E+000   0.00000000000E+000   0.00000000000E+000   0.00000000000E+000   0.00000000000E+000   0.00000000000E+000   0.00000000000E+000   0.00000000000E+000   0.00000000000E+000   0.00000000000E+000   0.00000000000E+000   0.00000000000E+000   0.00000000000E+000   9.54929430878E+000
     0.00000000000E+000   0.00000000000E+000   0.00000000000E+000   0.00000000000E+000   0.00000000000E+000   0.00000000000E+000   0.00000000000E+000   0.00000000000E+000   0.00000000000E+000   0.00000000000E+000   0.00000000000E+000   0.00000000000E+000   0.00000000000E+000   0.00000000000E+000   0.00000000000E+000   0.00000000000E+000   0.00000000000E+000   9.54929430878E+000
     0.00000000000E+000   0.00000000000E+000   0.00000000000E+000   2.79764548404E-002   0.00000000000E+000   0.00000000000E+000   0.00000000000E+000   0.00000000000E+000  -2.79764548404E-002   0.00000000000E+000   0.00000000000E+000   0.00000000000E+000   2.79764548404E-002   0.00000000000E+000   5.59529096807E-002   0.00000000000E+000   2.26438317680E-002   0.00000000000E+000
     0.00000000000E+000   0.00000000000E+000   0.00000000000E+000  -6.33107173038E+001  -6.34446545813E+002   6.48459252631E+001   1.87464886632E+003   2.72009029113E+000  -3.89712015926E+001   0.00000000000E+000   0.00000000000E+000   0.00000000000E+000   6.18692304681E+002  -1.59441313192E+002   2.95417724593E+003   7.31112718209E+000   4.17495648222E+000  -1.36385217347E-001
     0.00000000000E+000   0.00000000000E+000   0.00000000000E+000   1.68114769557E+005  -1.86110568180E+003   1.62310438518E+004   3.17013644752E+001   4.61243621773E+005   4.15170589831E+001   0.00000000000E+000   0.00000000000E+000   0.00000000000E+000  -3.70408262087E+002  -2.64309235692E+004  -1.40005370603E+003  -3.26614629421E+002   1.79955059826E+003  -4.91266546997E+001
     0.00000000000E+000   0.00000000000E+000   0.00000000000E+000  -1.09846752285E+003   2.04648886216E+005  -7.70628234451E+003   4.50031483186E+005   6.12289211006E+001  -3.09755307993E+003   0.00000000000E+000   0.00000000000E+000   0.00000000000E+000   4.87076793120E+004  -1.32071248010E+004   2.32576997742E+005   1.75390063342E+003   3.27520382692E+002  -5.81910260680E+000
     0.00000000000E+000   0.00000000000E+000   0.00000000000E+000  -2.63215356307E+004   1.04553607029E+004   5.94561912970E+003   1.88294783067E+002   1.85691591557E+004  -8.22165060735E+002   0.00000000000E+000   0.00000000000E+000   0.00000000000E+000   6.07431781608E+003   5.01489982889E+005   2.75678866939E+004   6.20196437060E+003   6.40537391137E+001   2.85359839372E+000
     0.00000000000E+000   0.00000000000E+000   0.00000000000E+000  -2.31435222667E+001   7.69327679007E+003  -3.23663103105E+002   2.63872534263E+003   1.57940726582E+000  -7.00635340909E+001   0.00000000000E+000   0.00000000000E+000   0.00000000000E+000   1.10092595382E+003  -2.93892658098E+002   5.25662549106E+003   1.07388372160E+001   7.40453298813E+000  -1.29391103637E-001
     0.00000000000E+000   0.00000000000E+000   0.00000000000E+000  -7.04918099013E+003   6.82022255798E+001  -7.12549813614E+002  -1.04656959953E+000  -2.85492935597E+003  -9.28468595015E-001   0.00000000000E+000   0.00000000000E+000   0.00000000000E+000   8.48473419456E+000   5.97535110708E+002   3.07111533010E+001   7.38542725507E+000  -1.15773666111E+001   1.29303677215E+000
     0.00000000000E+000   0.00000000000E+000   0.00000000000E+000   1.25446423504E+003   1.98263540163E+003   1.36105452798E+002   2.43557054496E+002  -7.23243986669E+001  -1.10227232071E+001   0.00000000000E+000   0.00000000000E+000   0.00000000000E+000   7.00250664655E+001  -2.92353953082E+001   3.01082606992E+002   6.79314953039E-001  -2.26438317680E-002   1.14703464846E+000
     1.00000006286E+000   0.00000000000E+000   0.00000000000E+000   0.00000000000E+000   0.00000000000E+000   0.00000000000E+000   0.00000000000E+000   0.00000000000E+000   0.00000000000E+000   0.00000000000E+000   0.00000000000E+000   0.00000000000E+000   0.00000000000E+000   0.00000000000E+000   0.00000000000E+000   0.00000000000E+000   0.00000000000E+000   0.00000000000E+000
     0.00000000000E+000   9.99999942514E-001   0.00000000000E+000   0.00000000000E+000   0.00000000000E+000   0.00000000000E+000   0.00000000000E+000   0.00000000000E+000   0.00000000000E+000   0.00000000000E+000   0.00000000000E+000   0.00000000000E+000   0.00000000000E+000   0.00000000000E+000   0.00000000000E+000   0.00000000000E+000   0.00000000000E+000   0.00000000000E+000
     0.00000000000E+000   0.00000000000E+000   1.00000000269E+000   0.00000000000E+000   0.00000000000E+000   0.00000000000E+000   0.00000000000E+000   0.00000000000E+000   0.00000000000E+000   0.00000000000E+000   0.00000000000E+000   0.00000000000E+000   0.00000000000E+000   0.00000000000E+000   0.00000000000E+000   0.00000000000E+000   0.00000000000E+000   0.00000000000E+000
     0.00000000000E+000   0.00000000000E+000   0.00000000000E+000   5.72957760980E+001   0.00000000000E+000   0.00000000000E+000   0.00000000000E+000   0.00000000000E+000   0.00000000000E+000   0.00000000000E+000   0.00000000000E+000   0.00000000000E+000   0.00000000000E+000   0.00000000000E+000   0.00000000000E+000   0.00000000000E+000   0.00000000000E+000   0.00000000000E+000
     0.00000000000E+000   0.00000000000E+000   0.00000000000E+000   0.00000000000E+000   5.72957760980E+001   0.00000000000E+000   0.00000000000E+000   0.00000000000E+000   0.00000000000E+000   0.00000000000E+000   0.00000000000E+000   0.00000000000E+000   0.00000000000E+000   0.00000000000E+000   0.00000000000E+000   0.00000000000E+000   0.00000000000E+000   0.00000000000E+000
     0.00000000000E+000   0.00000000000E+000   0.00000000000E+000   0.00000000000E+000   0.00000000000E+000   5.72957760980E+001   0.00000000000E+000   0.00000000000E+000   0.00000000000E+000   0.00000000000E+000   0.00000000000E+000   0.00000000000E+000   0.00000000000E+000   0.00000000000E+000   0.00000000000E+000   0.00000000000E+000   0.00000000000E+000   0.00000000000E+000
     0.00000000000E+000   0.00000000000E+000   0.00000000000E+000   0.00000000000E+000   0.00000000000E+000   0.00000000000E+000   1.00000006624E+000   0.00000000000E+000   0.00000000000E+000   0.00000000000E+000   0.00000000000E+000   0.00000000000E+000   0.00000000000E+000   0.00000000000E+000   0.00000000000E+000   0.00000000000E+000   0.00000000000E+000   0.00000000000E+000
     0.00000000000E+000   0.00000000000E+000   0.00000000000E+000   0.00000000000E+000   0.00000000000E+000   0.00000000000E+000   0.00000000000E+000  -1.00000006624E+000   0.00000000000E+000   0.00000000000E+000   0.00000000000E+000   0.00000000000E+000   0.00000000000E+000   0.00000000000E+000   0.00000000000E+000   0.00000000000E+000   0.00000000000E+000   0.00000000000E+000