
Linearized model: Predictions were generated on 20-Feb-2024 at 08:38:00 using OpenFAST, compiled as a 64-bit application using single precision at commit v3.5.1
 linked with  NWTC Subroutine Library; ElastoDyn; InflowWind; AeroDyn; ServoDyn; HydroDyn; MAP++ (<1.20.10>, <Oct-20-2023>)

Description from the FAST input file: CCT-9 Campign 4 model. Input files to be run with OpenFAST 3.5.0. GitHub branch from Lu Wang (https://github.com/luwang00/openfast/tree/dev) compiled on March 7, 2023.

Simulation information:
   Simulation time:                   893.7000 s
   Rotor Speed:                         0.7920 rad/s
   Azimuth:                             3.3258 rad
   Wind Speed:                         24.0000 m/s
   Number of continuous states:         0
   Number of discrete states:           0
   Number of constraint states:         0
   Number of inputs:                   84
   Number of outputs:                   4
   Jacobians included in this file?    No

Order of inputs:
     Column   Operating Point                                                   Rotating Frame? Derivative Order Description
   ---------- ---------------                                                   --------------- ---------------- -----------
          1     0.00000000000E+000                                                     T               0         User property on blade 1, node 1, -
          2     0.00000000000E+000                                                     T               0         User property on blade 1, node 2, -
          3     0.00000000000E+000                                                     T               0         User property on blade 1, node 3, -
          4     0.00000000000E+000                                                     T               0         User property on blade 1, node 4, -
          5     0.00000000000E+000                                                     T               0         User property on blade 1, node 5, -
          6     0.00000000000E+000                                                     T               0         User property on blade 1, node 6, -
          7     0.00000000000E+000                                                     T               0         User property on blade 1, node 7, -
          8     0.00000000000E+000                                                     T               0         User property on blade 1, node 8, -
          9     0.00000000000E+000                                                     T               0         User property on blade 1, node 9, -
         10     0.00000000000E+000                                                     T               0         User property on blade 1, node 10, -
         11     0.00000000000E+000                                                     T               0         User property on blade 1, node 11, -
         12     0.00000000000E+000                                                     T               0         User property on blade 1, node 12, -
         13     0.00000000000E+000                                                     T               0         User property on blade 1, node 13, -
         14     0.00000000000E+000                                                     T               0         User property on blade 1, node 14, -
         15     0.00000000000E+000                                                     T               0         User property on blade 1, node 15, -
         16     0.00000000000E+000                                                     T               0         User property on blade 1, node 16, -
         17     0.00000000000E+000                                                     T               0         User property on blade 1, node 17, -
         18     0.00000000000E+000                                                     T               0         User property on blade 1, node 18, -
         19     0.00000000000E+000                                                     T               0         User property on blade 1, node 19, -
         20     0.00000000000E+000                                                     T               0         User property on blade 1, node 20, -
         21     0.00000000000E+000                                                     T               0         User property on blade 1, node 21, -
         22     0.00000000000E+000                                                     T               0         User property on blade 1, node 22, -
         23     0.00000000000E+000                                                     T               0         User property on blade 1, node 23, -
         24     0.00000000000E+000                                                     T               0         User property on blade 1, node 24, -
         25     0.00000000000E+000                                                     T               0         User property on blade 1, node 25, -
         26     0.00000000000E+000                                                     T               0         User property on blade 1, node 26, -
         27     0.00000000000E+000                                                     T               0         User property on blade 1, node 27, -
         28     0.00000000000E+000                                                     T               0         User property on blade 1, node 28, -
         29     0.00000000000E+000                                                     T               0         User property on blade 2, node 1, -
         30     0.00000000000E+000                                                     T               0         User property on blade 2, node 2, -
         31     0.00000000000E+000                                                     T               0         User property on blade 2, node 3, -
         32     0.00000000000E+000                                                     T               0         User property on blade 2, node 4, -
         33     0.00000000000E+000                                                     T               0         User property on blade 2, node 5, -
         34     0.00000000000E+000                                                     T               0         User property on blade 2, node 6, -
         35     0.00000000000E+000                                                     T               0         User property on blade 2, node 7, -
         36     0.00000000000E+000                                                     T               0         User property on blade 2, node 8, -
         37     0.00000000000E+000                                                     T               0         User property on blade 2, node 9, -
         38     0.00000000000E+000                                                     T               0         User property on blade 2, node 10, -
         39     0.00000000000E+000                                                     T               0         User property on blade 2, node 11, -
         40     0.00000000000E+000                                                     T               0         User property on blade 2, node 12, -
         41     0.00000000000E+000                                                     T               0         User property on blade 2, node 13, -
         42     0.00000000000E+000                                                     T               0         User property on blade 2, node 14, -
         43     0.00000000000E+000                                                     T               0         User property on blade 2, node 15, -
         44     0.00000000000E+000                                                     T               0         User property on blade 2, node 16, -
         45     0.00000000000E+000                                                     T               0         User property on blade 2, node 17, -
         46     0.00000000000E+000                                                     T               0         User property on blade 2, node 18, -
         47     0.00000000000E+000                                                     T               0         User property on blade 2, node 19, -
         48     0.00000000000E+000                                                     T               0         User property on blade 2, node 20, -
         49     0.00000000000E+000                                                     T               0         User property on blade 2, node 21, -
         50     0.00000000000E+000                                                     T               0         User property on blade 2, node 22, -
         51     0.00000000000E+000                                                     T               0         User property on blade 2, node 23, -
         52     0.00000000000E+000                                                     T               0         User property on blade 2, node 24, -
         53     0.00000000000E+000                                                     T               0         User property on blade 2, node 25, -
         54     0.00000000000E+000                                                     T               0         User property on blade 2, node 26, -
         55     0.00000000000E+000                                                     T               0         User property on blade 2, node 27, -
         56     0.00000000000E+000                                                     T               0         User property on blade 2, node 28, -
         57     0.00000000000E+000                                                     T               0         User property on blade 3, node 1, -
         58     0.00000000000E+000                                                     T               0         User property on blade 3, node 2, -
         59     0.00000000000E+000                                                     T               0         User property on blade 3, node 3, -
         60     0.00000000000E+000                                                     T               0         User property on blade 3, node 4, -
         61     0.00000000000E+000                                                     T               0         User property on blade 3, node 5, -
         62     0.00000000000E+000                                                     T               0         User property on blade 3, node 6, -
         63     0.00000000000E+000                                                     T               0         User property on blade 3, node 7, -
         64     0.00000000000E+000                                                     T               0         User property on blade 3, node 8, -
         65     0.00000000000E+000                                                     T               0         User property on blade 3, node 9, -
         66     0.00000000000E+000                                                     T               0         User property on blade 3, node 10, -
         67     0.00000000000E+000                                                     T               0         User property on blade 3, node 11, -
         68     0.00000000000E+000                                                     T               0         User property on blade 3, node 12, -
         69     0.00000000000E+000                                                     T               0         User property on blade 3, node 13, -
         70     0.00000000000E+000                                                     T               0         User property on blade 3, node 14, -
         71     0.00000000000E+000                                                     T               0         User property on blade 3, node 15, -
         72     0.00000000000E+000                                                     T               0         User property on blade 3, node 16, -
         73     0.00000000000E+000                                                     T               0         User property on blade 3, node 17, -
         74     0.00000000000E+000                                                     T               0         User property on blade 3, node 18, -
         75     0.00000000000E+000                                                     T               0         User property on blade 3, node 19, -
         76     0.00000000000E+000                                                     T               0         User property on blade 3, node 20, -
         77     0.00000000000E+000                                                     T               0         User property on blade 3, node 21, -
         78     0.00000000000E+000                                                     T               0         User property on blade 3, node 22, -
         79     0.00000000000E+000                                                     T               0         User property on blade 3, node 23, -
         80     0.00000000000E+000                                                     T               0         User property on blade 3, node 24, -
         81     0.00000000000E+000                                                     T               0         User property on blade 3, node 25, -
         82     0.00000000000E+000                                                     T               0         User property on blade 3, node 26, -
         83     0.00000000000E+000                                                     T               0         User property on blade 3, node 27, -
         84     0.00000000000E+000                                                     T               0         User property on blade 3, node 28, -

Order of outputs:
        Row   Operating Point                                                   Rotating Frame? Derivative Order Description
   ---------- ---------------                                                   --------------- ---------------- -----------
          1     4.00027222931E-002                                                     F               0         RtAeroCp, (-)
          2     7.35987350345E-002                                                     F               0         RtAeroCt, (-)
          3     9.80166997761E-003                                                     F               0         RtAeroCq, (-)
          4     4.08121538162E+000                                                     F               0         RtTSR, (-)


Linearized state matrices:

D: 4 x 84
     0.00000000000E+000   0.00000000000E+000   0.00000000000E+000   0.00000000000E+000   0.00000000000E+000   0.00000000000E+000   0.00000000000E+000   0.00000000000E+000   0.00000000000E+000   0.00000000000E+000   0.00000000000E+000   0.00000000000E+000   0.00000000000E+000   0.00000000000E+000   0.00000000000E+000   0.00000000000E+000   0.00000000000E+000   0.00000000000E+000   0.00000000000E+000   0.00000000000E+000   0.00000000000E+000   0.00000000000E+000   0.00000000000E+000   0.00000000000E+000   0.00000000000E+000   0.00000000000E+000   0.00000000000E+000   0.00000000000E+000   0.00000000000E+000   0.00000000000E+000   0.00000000000E+000   0.00000000000E+000   0.00000000000E+000   0.00000000000E+000   0.00000000000E+000   0.00000000000E+000   0.00000000000E+000   0.00000000000E+000   0.00000000000E+000   0.00000000000E+000   0.00000000000E+000   0.00000000000E+000   0.00000000000E+000   0.00000000000E+000   0.00000000000E+000   0.00000000000E+000   0.00000000000E+000   0.00000000000E+000   0.00000000000E+000   0.00000000000E+000   0.00000000000E+000   0.00000000000E+000   0.00000000000E+000   0.00000000000E+000   0.00000000000E+000   0.00000000000E+000   0.00000000000E+000   0.00000000000E+000   0.00000000000E+000   0.00000000000E+000   0.00000000000E+000   0.00000000000E+000   0.00000000000E+000   0.00000000000E+000   0.00000000000E+000   0.00000000000E+000   0.00000000000E+000   0.00000000000E+000   0.00000000000E+000   0.00000000000E+000   0.00000000000E+000   0.00000000000E+000   0.00000000000E+000   0.00000000000E+000   0.00000000000E+000   0.00000000000E+000   0.00000000000E+000   0.00000000000E+000   0.00000000000E+000   0.00000000000E+000   0.00000000000E+000   0.00000000000E+000   0.00000000000E+000   0.00000000000E+000
     0.00000000000E+000   0.00000000000E+000   0.00000000000E+000   0.00000000000E+000   0.00000000000E+000   0.00000000000E+000   0.00000000000E+000   0.00000000000E+000   0.00000000000E+000   0.00000000000E+000   0.00000000000E+000   0.00000000000E+000   0.00000000000E+000   0.00000000000E+000   0.00000000000E+000   0.00000000000E+000   0.00000000000E+000   0.00000000000E+000   0.00000000000E+000   0.00000000000E+000   0.00000000000E+000   0.00000000000E+000   0.00000000000E+000   0.00000000000E+000   0.00000000000E+000   0.00000000000E+000   0.00000000000E+000   0.00000000000E+000   0.00000000000E+000   0.00000000000E+000   0.00000000000E+000   0.00000000000E+000   0.00000000000E+000   0.00000000000E+000   0.00000000000E+000   0.00000000000E+000   0.00000000000E+000   0.00000000000E+000   0.00000000000E+000   0.00000000000E+000   0.00000000000E+000   0.00000000000E+000   0.00000000000E+000   0.00000000000E+000   0.00000000000E+000   0.00000000000E+000   0.00000000000E+000   0.00000000000E+000   0.00000000000E+000   0.00000000000E+000   0.00000000000E+000   0.00000000000E+000   0.00000000000E+000   0.00000000000E+000   0.00000000000E+000   0.00000000000E+000   0.00000000000E+000   0.00000000000E+000   0.00000000000E+000   0.00000000000E+000   0.00000000000E+000   0.00000000000E+000   0.00000000000E+000   0.00000000000E+000   0.00000000000E+000   0.00000000000E+000   0.00000000000E+000   0.00000000000E+000   0.00000000000E+000   0.00000000000E+000   0.00000000000E+000   0.00000000000E+000   0.00000000000E+000   0.00000000000E+000   0.00000000000E+000   0.00000000000E+000   0.00000000000E+000   0.00000000000E+000   0.00000000000E+000   0.00000000000E+000   0.00000000000E+000   0.00000000000E+000   0.00000000000E+000   0.00000000000E+000
     0.00000000000E+000   0.00000000000E+000   0.00000000000E+000   0.00000000000E+000   0.00000000000E+000   0.00000000000E+000   0.00000000000E+000   0.00000000000E+000   0.00000000000E+000   0.00000000000E+000   0.00000000000E+000   0.00000000000E+000   0.00000000000E+000   0.00000000000E+000   0.00000000000E+000   0.00000000000E+000   0.00000000000E+000   0.00000000000E+000   0.00000000000E+000   0.00000000000E+000   0.00000000000E+000   0.00000000000E+000   0.00000000000E+000   0.00000000000E+000   0.00000000000E+000   0.00000000000E+000   0.00000000000E+000   0.00000000000E+000   0.00000000000E+000   0.00000000000E+000   0.00000000000E+000   0.00000000000E+000   0.00000000000E+000   0.00000000000E+000   0.00000000000E+000   0.00000000000E+000   0.00000000000E+000   0.00000000000E+000   0.00000000000E+000   0.00000000000E+000   0.00000000000E+000   0.00000000000E+000   0.00000000000E+000   0.00000000000E+000   0.00000000000E+000   0.00000000000E+000   0.00000000000E+000   0.00000000000E+000   0.00000000000E+000   0.00000000000E+000   0.00000000000E+000   0.00000000000E+000   0.00000000000E+000   0.00000000000E+000   0.00000000000E+000   0.00000000000E+000   0.00000000000E+000   0.00000000000E+000   0.00000000000E+000   0.00000000000E+000   0.00000000000E+000   0.00000000000E+000   0.00000000000E+000   0.00000000000E+000   0.00000000000E+000   0.00000000000E+000   0.00000000000E+000   0.00000000000E+000   0.00000000000E+000   0.00000000000E+000   0.00000000000E+000   0.00000000000E+000   0.00000000000E+000   0.00000000000E+000   0.00000000000E+000   0.00000000000E+000   0.00000000000E+000   0.00000000000E+000   0.00000000000E+000   0.00000000000E+000   0.00000000000E+000   0.00000000000E+000   0.00000000000E+000   0.00000000000E+000
     0.00000000000E+000   0.00000000000E+000   0.00000000000E+000   0.00000000000E+000   0.00000000000E+000   0.00000000000E+000   0.00000000000E+000   0.00000000000E+000   0.00000000000E+000   0.00000000000E+000   0.00000000000E+000   0.00000000000E+000   0.00000000000E+000   0.00000000000E+000   0.00000000000E+000   0.00000000000E+000   0.00000000000E+000   0.00000000000E+000   0.00000000000E+000   0.00000000000E+000   0.00000000000E+000   0.00000000000E+000   0.00000000000E+000   0.00000000000E+000   0.00000000000E+000   0.00000000000E+000   0.00000000000E+000   0.00000000000E+000   0.00000000000E+000   0.00000000000E+000   0.00000000000E+000   0.00000000000E+000   0.00000000000E+000   0.00000000000E+000   0.00000000000E+000   0.00000000000E+000   0.00000000000E+000   0.00000000000E+000   0.00000000000E+000   0.00000000000E+000   0.00000000000E+000   0.00000000000E+000   0.00000000000E+000   0.00000000000E+000   0.00000000000E+000   0.00000000000E+000   0.00000000000E+000   0.00000000000E+000   0.00000000000E+000   0.00000000000E+000   0.00000000000E+000   0.00000000000E+000   0.00000000000E+000   0.00000000000E+000   0.00000000000E+000   0.00000000000E+000   0.00000000000E+000   0.00000000000E+000   0.00000000000E+000   0.00000000000E+000   0.00000000000E+000   0.00000000000E+000   0.00000000000E+000   0.00000000000E+000   0.00000000000E+000   0.00000000000E+000   0.00000000000E+000   0.00000000000E+000   0.00000000000E+000   0.00000000000E+000   0.00000000000E+000   0.00000000000E+000   0.00000000000E+000   0.00000000000E+000   0.00000000000E+000   0.00000000000E+000   0.00000000000E+000   0.00000000000E+000   0.00000000000E+000   0.00000000000E+000   0.00000000000E+000   0.00000000000E+000   0.00000000000E+000   0.00000000000E+000
