
Linearized model: Predictions were generated on 08-Jan-2024 at 09:43:14 using OpenFAST, compiled as a 64-bit application using single precision at commit v3.5.1
 linked with  NWTC Subroutine Library; ElastoDyn; InflowWind; AeroDyn; ServoDyn; HydroDyn; MoorDyn (v2.0.0, 2023-09-18)

Description from the FAST input file: CCT-9 Campign 4 model. Input files to be run with OpenFAST 3.5.0. GitHub branch from Lu Wang (https://github.com/luwang00/openfast/tree/dev) compiled on March 7, 2023.

Simulation information:
   Simulation time:                  1005.7250 s
   Rotor Speed:                         0.7077 rad/s
   Azimuth:                             3.2375 rad
   Wind Speed:                          8.0000 m/s
   Number of continuous states:         0
   Number of discrete states:           0
   Number of constraint states:         0
   Number of inputs:                  303
   Number of outputs:                   1
   Jacobians included in this file?    No

Order of inputs:
     Column   Operating Point                     Rotating Frame? Derivative Order Description
   ---------- ---------------                     --------------- ---------------- -----------
          1   -1.080E+01                                 F               0         X-component position of node 1 (hub), m
          2    0.000E+00                                 F               0         Y-component position of node 1 (hub), m
          3    1.497E+02                                 F               0         Z-component position of node 1 (hub), m
          4    6.949E+00                                 F               0         X-component position of node 2 (blade 1, node 1), m
          5   -6.463E+00                                 F               0         Y-component position of node 2 (blade 1, node 1), m
          6    1.445E+02                                 F               0         Z-component position of node 2 (blade 1, node 1), m
          7    6.693E+00                                 F               0         X-component position of node 3 (blade 1, node 2), m
          8   -6.276E+00                                 F               0         Y-component position of node 3 (blade 1, node 2), m
          9    1.432E+02                                 F               0         Z-component position of node 3 (blade 1, node 2), m
         10    3.210E+00                                 F               0         X-component position of node 4 (blade 1, node 3), m
         11   -3.727E+00                                 F               0         Y-component position of node 4 (blade 1, node 3), m
         12    1.256E+02                                 F               0         Z-component position of node 4 (blade 1, node 3), m
         13    2.469E+00                                 F               0         X-component position of node 5 (blade 1, node 4), m
         14   -3.184E+00                                 F               0         Y-component position of node 5 (blade 1, node 4), m
         15    1.218E+02                                 F               0         Z-component position of node 5 (blade 1, node 4), m
         16    1.727E+00                                 F               0         X-component position of node 6 (blade 1, node 5), m
         17   -2.641E+00                                 F               0         Y-component position of node 6 (blade 1, node 5), m
         18    1.181E+02                                 F               0         Z-component position of node 6 (blade 1, node 5), m
         19    9.846E-01                                 F               0         X-component position of node 7 (blade 1, node 6), m
         20   -2.098E+00                                 F               0         Y-component position of node 7 (blade 1, node 6), m
         21    1.143E+02                                 F               0         Z-component position of node 7 (blade 1, node 6), m
         22    2.427E-01                                 F               0         X-component position of node 8 (blade 1, node 7), m
         23   -1.555E+00                                 F               0         Y-component position of node 8 (blade 1, node 7), m
         24    1.106E+02                                 F               0         Z-component position of node 8 (blade 1, node 7), m
         25   -4.993E-01                                 F               0         X-component position of node 9 (blade 1, node 8), m
         26   -1.012E+00                                 F               0         Y-component position of node 9 (blade 1, node 8), m
         27    1.068E+02                                 F               0         Z-component position of node 9 (blade 1, node 8), m
         28   -1.241E+00                                 F               0         X-component position of node 10 (blade 1, node 9), m
         29   -4.693E-01                                 F               0         Y-component position of node 10 (blade 1, node 9), m
         30    1.030E+02                                 F               0         Z-component position of node 10 (blade 1, node 9), m
         31   -1.983E+00                                 F               0         X-component position of node 11 (blade 1, node 10), m
         32    7.367E-02                                 F               0         Y-component position of node 11 (blade 1, node 10), m
         33    9.929E+01                                 F               0         Z-component position of node 11 (blade 1, node 10), m
         34   -2.725E+00                                 F               0         X-component position of node 12 (blade 1, node 11), m
         35    6.166E-01                                 F               0         Y-component position of node 12 (blade 1, node 11), m
         36    9.553E+01                                 F               0         Z-component position of node 12 (blade 1, node 11), m
         37   -3.467E+00                                 F               0         X-component position of node 13 (blade 1, node 12), m
         38    1.160E+00                                 F               0         Y-component position of node 13 (blade 1, node 12), m
         39    9.178E+01                                 F               0         Z-component position of node 13 (blade 1, node 12), m
         40   -4.209E+00                                 F               0         X-component position of node 14 (blade 1, node 13), m
         41    1.703E+00                                 F               0         Y-component position of node 14 (blade 1, node 13), m
         42    8.802E+01                                 F               0         Z-component position of node 14 (blade 1, node 13), m
         43   -4.951E+00                                 F               0         X-component position of node 15 (blade 1, node 14), m
         44    2.246E+00                                 F               0         Y-component position of node 15 (blade 1, node 14), m
         45    8.426E+01                                 F               0         Z-component position of node 15 (blade 1, node 14), m
         46   -5.693E+00                                 F               0         X-component position of node 16 (blade 1, node 15), m
         47    2.789E+00                                 F               0         Y-component position of node 16 (blade 1, node 15), m
         48    8.051E+01                                 F               0         Z-component position of node 16 (blade 1, node 15), m
         49   -6.435E+00                                 F               0         X-component position of node 17 (blade 1, node 16), m
         50    3.332E+00                                 F               0         Y-component position of node 17 (blade 1, node 16), m
         51    7.675E+01                                 F               0         Z-component position of node 17 (blade 1, node 16), m
         52   -7.177E+00                                 F               0         X-component position of node 18 (blade 1, node 17), m
         53    3.875E+00                                 F               0         Y-component position of node 18 (blade 1, node 17), m
         54    7.299E+01                                 F               0         Z-component position of node 18 (blade 1, node 17), m
         55   -7.919E+00                                 F               0         X-component position of node 19 (blade 1, node 18), m
         56    4.417E+00                                 F               0         Y-component position of node 19 (blade 1, node 18), m
         57    6.924E+01                                 F               0         Z-component position of node 19 (blade 1, node 18), m
         58   -8.661E+00                                 F               0         X-component position of node 20 (blade 1, node 19), m
         59    4.961E+00                                 F               0         Y-component position of node 20 (blade 1, node 19), m
         60    6.548E+01                                 F               0         Z-component position of node 20 (blade 1, node 19), m
         61   -9.402E+00                                 F               0         X-component position of node 21 (blade 1, node 20), m
         62    5.504E+00                                 F               0         Y-component position of node 21 (blade 1, node 20), m
         63    6.172E+01                                 F               0         Z-component position of node 21 (blade 1, node 20), m
         64   -1.014E+01                                 F               0         X-component position of node 22 (blade 1, node 21), m
         65    6.046E+00                                 F               0         Y-component position of node 22 (blade 1, node 21), m
         66    5.797E+01                                 F               0         Z-component position of node 22 (blade 1, node 21), m
         67   -1.089E+01                                 F               0         X-component position of node 23 (blade 1, node 22), m
         68    6.590E+00                                 F               0         Y-component position of node 23 (blade 1, node 22), m
         69    5.421E+01                                 F               0         Z-component position of node 23 (blade 1, node 22), m
         70   -1.163E+01                                 F               0         X-component position of node 24 (blade 1, node 23), m
         71    7.132E+00                                 F               0         Y-component position of node 24 (blade 1, node 23), m
         72    5.045E+01                                 F               0         Z-component position of node 24 (blade 1, node 23), m
         73   -1.237E+01                                 F               0         X-component position of node 25 (blade 1, node 24), m
         74    7.675E+00                                 F               0         Y-component position of node 25 (blade 1, node 24), m
         75    4.670E+01                                 F               0         Z-component position of node 25 (blade 1, node 24), m
         76   -1.311E+01                                 F               0         X-component position of node 26 (blade 1, node 25), m
         77    8.218E+00                                 F               0         Y-component position of node 26 (blade 1, node 25), m
         78    4.294E+01                                 F               0         Z-component position of node 26 (blade 1, node 25), m
         79   -1.385E+01                                 F               0         X-component position of node 27 (blade 1, node 26), m
         80    8.761E+00                                 F               0         Y-component position of node 27 (blade 1, node 26), m
         81    3.918E+01                                 F               0         Z-component position of node 27 (blade 1, node 26), m
         82   -1.460E+01                                 F               0         X-component position of node 28 (blade 1, node 27), m
         83    9.304E+00                                 F               0         Y-component position of node 28 (blade 1, node 27), m
         84    3.543E+01                                 F               0         Z-component position of node 28 (blade 1, node 27), m
         85   -1.523E+01                                 F               0         X-component position of node 29 (blade 1, node 28), m
         86    9.765E+00                                 F               0         Y-component position of node 29 (blade 1, node 28), m
         87    3.224E+01                                 F               0         Z-component position of node 29 (blade 1, node 28), m
         88    8.630E+00                                 F               0         X-component position of node 30 (blade 2, node 1), m
         89   -2.880E+00                                 F               0         Y-component position of node 30 (blade 2, node 1), m
         90    1.533E+02                                 F               0         Z-component position of node 30 (blade 2, node 1), m
         91    8.779E+00                                 F               0         X-component position of node 31 (blade 2, node 2), m
         92   -1.829E+00                                 F               0         Y-component position of node 31 (blade 2, node 2), m
         93    1.541E+02                                 F               0         Z-component position of node 31 (blade 2, node 2), m
         94    1.081E+01                                 F               0         X-component position of node 32 (blade 2, node 3), m
         95    1.246E+01                                 F               0         Y-component position of node 32 (blade 2, node 3), m
         96    1.651E+02                                 F               0         Z-component position of node 32 (blade 2, node 3), m
         97    1.124E+01                                 F               0         X-component position of node 33 (blade 2, node 4), m
         98    1.551E+01                                 F               0         Y-component position of node 33 (blade 2, node 4), m
         99    1.674E+02                                 F               0         Z-component position of node 33 (blade 2, node 4), m
        100    1.167E+01                                 F               0         X-component position of node 34 (blade 2, node 5), m
        101    1.855E+01                                 F               0         Y-component position of node 34 (blade 2, node 5), m
        102    1.698E+02                                 F               0         Z-component position of node 34 (blade 2, node 5), m
        103    1.210E+01                                 F               0         X-component position of node 35 (blade 2, node 6), m
        104    2.160E+01                                 F               0         Y-component position of node 35 (blade 2, node 6), m
        105    1.721E+02                                 F               0         Z-component position of node 35 (blade 2, node 6), m
        106    1.253E+01                                 F               0         X-component position of node 36 (blade 2, node 7), m
        107    2.464E+01                                 F               0         Y-component position of node 36 (blade 2, node 7), m
        108    1.745E+02                                 F               0         Z-component position of node 36 (blade 2, node 7), m
        109    1.297E+01                                 F               0         X-component position of node 37 (blade 2, node 8), m
        110    2.769E+01                                 F               0         Y-component position of node 37 (blade 2, node 8), m
        111    1.768E+02                                 F               0         Z-component position of node 37 (blade 2, node 8), m
        112    1.340E+01                                 F               0         X-component position of node 38 (blade 2, node 9), m
        113    3.073E+01                                 F               0         Y-component position of node 38 (blade 2, node 9), m
        114    1.792E+02                                 F               0         Z-component position of node 38 (blade 2, node 9), m
        115    1.383E+01                                 F               0         X-component position of node 39 (blade 2, node 10), m
        116    3.377E+01                                 F               0         Y-component position of node 39 (blade 2, node 10), m
        117    1.815E+02                                 F               0         Z-component position of node 39 (blade 2, node 10), m
        118    1.426E+01                                 F               0         X-component position of node 40 (blade 2, node 11), m
        119    3.682E+01                                 F               0         Y-component position of node 40 (blade 2, node 11), m
        120    1.838E+02                                 F               0         Z-component position of node 40 (blade 2, node 11), m
        121    1.469E+01                                 F               0         X-component position of node 41 (blade 2, node 12), m
        122    3.986E+01                                 F               0         Y-component position of node 41 (blade 2, node 12), m
        123    1.862E+02                                 F               0         Z-component position of node 41 (blade 2, node 12), m
        124    1.512E+01                                 F               0         X-component position of node 42 (blade 2, node 13), m
        125    4.291E+01                                 F               0         Y-component position of node 42 (blade 2, node 13), m
        126    1.885E+02                                 F               0         Z-component position of node 42 (blade 2, node 13), m
        127    1.556E+01                                 F               0         X-component position of node 43 (blade 2, node 14), m
        128    4.595E+01                                 F               0         Y-component position of node 43 (blade 2, node 14), m
        129    1.909E+02                                 F               0         Z-component position of node 43 (blade 2, node 14), m
        130    1.599E+01                                 F               0         X-component position of node 44 (blade 2, node 15), m
        131    4.900E+01                                 F               0         Y-component position of node 44 (blade 2, node 15), m
        132    1.932E+02                                 F               0         Z-component position of node 44 (blade 2, node 15), m
        133    1.642E+01                                 F               0         X-component position of node 45 (blade 2, node 16), m
        134    5.204E+01                                 F               0         Y-component position of node 45 (blade 2, node 16), m
        135    1.956E+02                                 F               0         Z-component position of node 45 (blade 2, node 16), m
        136    1.685E+01                                 F               0         X-component position of node 46 (blade 2, node 17), m
        137    5.509E+01                                 F               0         Y-component position of node 46 (blade 2, node 17), m
        138    1.979E+02                                 F               0         Z-component position of node 46 (blade 2, node 17), m
        139    1.728E+01                                 F               0         X-component position of node 47 (blade 2, node 18), m
        140    5.813E+01                                 F               0         Y-component position of node 47 (blade 2, node 18), m
        141    2.003E+02                                 F               0         Z-component position of node 47 (blade 2, node 18), m
        142    1.772E+01                                 F               0         X-component position of node 48 (blade 2, node 19), m
        143    6.118E+01                                 F               0         Y-component position of node 48 (blade 2, node 19), m
        144    2.026E+02                                 F               0         Z-component position of node 48 (blade 2, node 19), m
        145    1.815E+01                                 F               0         X-component position of node 49 (blade 2, node 20), m
        146    6.422E+01                                 F               0         Y-component position of node 49 (blade 2, node 20), m
        147    2.050E+02                                 F               0         Z-component position of node 49 (blade 2, node 20), m
        148    1.858E+01                                 F               0         X-component position of node 50 (blade 2, node 21), m
        149    6.727E+01                                 F               0         Y-component position of node 50 (blade 2, node 21), m
        150    2.073E+02                                 F               0         Z-component position of node 50 (blade 2, node 21), m
        151    1.901E+01                                 F               0         X-component position of node 51 (blade 2, node 22), m
        152    7.031E+01                                 F               0         Y-component position of node 51 (blade 2, node 22), m
        153    2.096E+02                                 F               0         Z-component position of node 51 (blade 2, node 22), m
        154    1.944E+01                                 F               0         X-component position of node 52 (blade 2, node 23), m
        155    7.336E+01                                 F               0         Y-component position of node 52 (blade 2, node 23), m
        156    2.120E+02                                 F               0         Z-component position of node 52 (blade 2, node 23), m
        157    1.987E+01                                 F               0         X-component position of node 53 (blade 2, node 24), m
        158    7.640E+01                                 F               0         Y-component position of node 53 (blade 2, node 24), m
        159    2.143E+02                                 F               0         Z-component position of node 53 (blade 2, node 24), m
        160    2.031E+01                                 F               0         X-component position of node 54 (blade 2, node 25), m
        161    7.944E+01                                 F               0         Y-component position of node 54 (blade 2, node 25), m
        162    2.167E+02                                 F               0         Z-component position of node 54 (blade 2, node 25), m
        163    2.074E+01                                 F               0         X-component position of node 55 (blade 2, node 26), m
        164    8.249E+01                                 F               0         Y-component position of node 55 (blade 2, node 26), m
        165    2.190E+02                                 F               0         Z-component position of node 55 (blade 2, node 26), m
        166    2.117E+01                                 F               0         X-component position of node 56 (blade 2, node 27), m
        167    8.553E+01                                 F               0         Y-component position of node 56 (blade 2, node 27), m
        168    2.214E+02                                 F               0         Z-component position of node 56 (blade 2, node 27), m
        169    2.154E+01                                 F               0         X-component position of node 57 (blade 2, node 28), m
        170    8.812E+01                                 F               0         Y-component position of node 57 (blade 2, node 28), m
        171    2.234E+02                                 F               0         Z-component position of node 57 (blade 2, node 28), m
        172    8.456E+00                                 F               0         X-component position of node 58 (blade 3, node 1), m
        173   -1.238E+01                                 F               0         Y-component position of node 58 (blade 3, node 1), m
        174    1.519E+02                                 F               0         Z-component position of node 58 (blade 3, node 1), m
        175    8.563E+00                                 F               0         X-component position of node 59 (blade 3, node 2), m
        176   -1.362E+01                                 F               0         Y-component position of node 59 (blade 3, node 2), m
        177    1.524E+02                                 F               0         Z-component position of node 59 (blade 3, node 2), m
        178    1.002E+01                                 F               0         X-component position of node 60 (blade 3, node 3), m
        179   -3.046E+01                                 F               0         Y-component position of node 60 (blade 3, node 3), m
        180    1.590E+02                                 F               0         Z-component position of node 60 (blade 3, node 3), m
        181    1.033E+01                                 F               0         X-component position of node 61 (blade 3, node 4), m
        182   -3.404E+01                                 F               0         Y-component position of node 61 (blade 3, node 4), m
        183    1.604E+02                                 F               0         Z-component position of node 61 (blade 3, node 4), m
        184    1.064E+01                                 F               0         X-component position of node 62 (blade 3, node 5), m
        185   -3.763E+01                                 F               0         Y-component position of node 62 (blade 3, node 5), m
        186    1.619E+02                                 F               0         Z-component position of node 62 (blade 3, node 5), m
        187    1.095E+01                                 F               0         X-component position of node 63 (blade 3, node 6), m
        188   -4.122E+01                                 F               0         Y-component position of node 63 (blade 3, node 6), m
        189    1.633E+02                                 F               0         Z-component position of node 63 (blade 3, node 6), m
        190    1.126E+01                                 F               0         X-component position of node 64 (blade 3, node 7), m
        191   -4.481E+01                                 F               0         Y-component position of node 64 (blade 3, node 7), m
        192    1.647E+02                                 F               0         Z-component position of node 64 (blade 3, node 7), m
        193    1.157E+01                                 F               0         X-component position of node 65 (blade 3, node 8), m
        194   -4.840E+01                                 F               0         Y-component position of node 65 (blade 3, node 8), m
        195    1.661E+02                                 F               0         Z-component position of node 65 (blade 3, node 8), m
        196    1.188E+01                                 F               0         X-component position of node 66 (blade 3, node 9), m
        197   -5.198E+01                                 F               0         Y-component position of node 66 (blade 3, node 9), m
        198    1.675E+02                                 F               0         Z-component position of node 66 (blade 3, node 9), m
        199    1.219E+01                                 F               0         X-component position of node 67 (blade 3, node 10), m
        200   -5.557E+01                                 F               0         Y-component position of node 67 (blade 3, node 10), m
        201    1.689E+02                                 F               0         Z-component position of node 67 (blade 3, node 10), m
        202    1.250E+01                                 F               0         X-component position of node 68 (blade 3, node 11), m
        203   -5.916E+01                                 F               0         Y-component position of node 68 (blade 3, node 11), m
        204    1.703E+02                                 F               0         Z-component position of node 68 (blade 3, node 11), m
        205    1.281E+01                                 F               0         X-component position of node 69 (blade 3, node 12), m
        206   -6.275E+01                                 F               0         Y-component position of node 69 (blade 3, node 12), m
        207    1.717E+02                                 F               0         Z-component position of node 69 (blade 3, node 12), m
        208    1.312E+01                                 F               0         X-component position of node 70 (blade 3, node 13), m
        209   -6.633E+01                                 F               0         Y-component position of node 70 (blade 3, node 13), m
        210    1.731E+02                                 F               0         Z-component position of node 70 (blade 3, node 13), m
        211    1.343E+01                                 F               0         X-component position of node 71 (blade 3, node 14), m